 VARIABLES ="x" "y" "z"  "T" "matID" "qvol" "k" "rho" "cs" "h"
 ZONE  T = Block1, I=61, J=101, K=2, DATAPACKING=BLOCK, VARLOCATION=([1-3]=NODAL,[4-10]=CELLCENTERED), SOLUTIONTIME=0.277050000000000E+005, STRANDID = 0
 0.000000000000000E+000
 0.999999999998132E-002
 0.199999999999619E-001
 0.299999999999400E-001
 0.399999999999205E-001
 0.499999999999049E-001
 0.599999999998898E-001
 0.699999999998725E-001
 0.799999999998518E-001
 0.899999999998227E-001
 0.999999999997935E-001
 0.109999999999766E+000
 0.119999999999741E+000
 0.129999999999712E+000
 0.139999999999682E+000
 0.149999999999653E+000
 0.159999999999624E+000
 0.169999999999595E+000
 0.179999999999566E+000
 0.189999999999537E+000
 0.199999999999508E+000
 0.209999999999478E+000
 0.219999999999449E+000
 0.229999999999431E+000
 0.239999999999402E+000
 0.249999999999373E+000
 0.259999999999344E+000
 0.269999999999315E+000
 0.279999999999285E+000
 0.289999999999256E+000
 0.299999999999238E+000
 0.309999999999255E+000
 0.319999999999275E+000
 0.329999999999311E+000
 0.339999999999328E+000
 0.349999999999363E+000
 0.359999999999384E+000
 0.369999999999411E+000
 0.379999999999440E+000
 0.389999999999459E+000
 0.399999999999496E+000
 0.409999999999513E+000
 0.419999999999547E+000
 0.429999999999569E+000
 0.439999999999595E+000
 0.449999999999624E+000
 0.459999999999654E+000
 0.469999999999680E+000
 0.479999999999702E+000
 0.489999999999736E+000
 0.499999999999746E+000
 0.509999999999760E+000
 0.519999999999797E+000
 0.529999999999815E+000
 0.539999999999837E+000
 0.549999999999871E+000
 0.559999999999888E+000
 0.569999999999927E+000
 0.579999999999944E+000
 0.589999999999980E+000
 0.600000000000000E+000
 0.000000000000000E+000
 0.999999999998171E-002
 0.199999999999628E-001
 0.299999999999413E-001
 0.399999999999224E-001
 0.499999999999072E-001
 0.599999999998925E-001
 0.699999999998756E-001
 0.799999999998553E-001
 0.899999999998269E-001
 0.999999999997981E-001
 0.109999999999771E+000
 0.119999999999746E+000
 0.129999999999718E+000
 0.139999999999689E+000
 0.149999999999660E+000
 0.159999999999632E+000
 0.169999999999603E+000
 0.179999999999575E+000
 0.189999999999546E+000
 0.199999999999518E+000
 0.209999999999489E+000
 0.219999999999460E+000
 0.229999999999443E+000
 0.239999999999414E+000
 0.249999999999385E+000
 0.259999999999357E+000
 0.269999999999328E+000
 0.279999999999300E+000
 0.289999999999271E+000
 0.299999999999253E+000
 0.309999999999270E+000
 0.319999999999290E+000
 0.329999999999325E+000
 0.339999999999341E+000
 0.349999999999376E+000
 0.359999999999396E+000
 0.369999999999423E+000
 0.379999999999451E+000
 0.389999999999470E+000
 0.399999999999506E+000
 0.409999999999523E+000
 0.419999999999556E+000
 0.429999999999577E+000
 0.439999999999603E+000
 0.449999999999632E+000
 0.459999999999661E+000
 0.469999999999687E+000
 0.479999999999707E+000
 0.489999999999741E+000
 0.499999999999751E+000
 0.509999999999764E+000
 0.519999999999800E+000
 0.529999999999818E+000
 0.539999999999839E+000
 0.549999999999873E+000
 0.559999999999890E+000
 0.569999999999928E+000
 0.579999999999945E+000
 0.589999999999980E+000
 0.600000000000000E+000
 0.000000000000000E+000
 0.999999999998210E-002
 0.199999999999638E-001
 0.299999999999426E-001
 0.399999999999244E-001
 0.499999999999094E-001
 0.599999999998953E-001
 0.699999999998788E-001
 0.799999999998589E-001
 0.899999999998310E-001
 0.999999999998028E-001
 0.109999999999776E+000
 0.119999999999752E+000
 0.129999999999724E+000
 0.139999999999696E+000
 0.149999999999668E+000
 0.159999999999640E+000
 0.169999999999612E+000
 0.179999999999584E+000
 0.189999999999556E+000
 0.199999999999528E+000
 0.209999999999500E+000
 0.219999999999472E+000
 0.229999999999454E+000
 0.239999999999426E+000
 0.249999999999398E+000
 0.259999999999371E+000
 0.269999999999342E+000
 0.279999999999314E+000
 0.289999999999286E+000
 0.299999999999269E+000
 0.309999999999285E+000
 0.319999999999304E+000
 0.329999999999339E+000
 0.339999999999355E+000
 0.349999999999389E+000
 0.359999999999408E+000
 0.369999999999435E+000
 0.379999999999462E+000
 0.389999999999481E+000
 0.399999999999516E+000
 0.409999999999532E+000
 0.419999999999565E+000
 0.429999999999586E+000
 0.439999999999611E+000
 0.449999999999639E+000
 0.459999999999668E+000
 0.469999999999693E+000
 0.479999999999713E+000
 0.489999999999747E+000
 0.499999999999756E+000
 0.509999999999767E+000
 0.519999999999803E+000
 0.529999999999821E+000
 0.539999999999841E+000
 0.549999999999875E+000
 0.559999999999891E+000
 0.569999999999929E+000
 0.579999999999946E+000
 0.589999999999981E+000
 0.600000000000000E+000
 0.000000000000000E+000
 0.999999999998250E-002
 0.199999999999647E-001
 0.299999999999440E-001
 0.399999999999263E-001
 0.499999999999117E-001
 0.599999999998980E-001
 0.699999999998819E-001
 0.799999999998624E-001
 0.899999999998352E-001
 0.999999999998074E-001
 0.109999999999781E+000
 0.119999999999757E+000
 0.129999999999730E+000
 0.139999999999702E+000
 0.149999999999675E+000
 0.159999999999648E+000
 0.169999999999620E+000
 0.179999999999593E+000
 0.189999999999565E+000
 0.199999999999538E+000
 0.209999999999511E+000
 0.219999999999483E+000
 0.229999999999466E+000
 0.239999999999438E+000
 0.249999999999411E+000
 0.259999999999384E+000
 0.269999999999356E+000
 0.279999999999329E+000
 0.289999999999301E+000
 0.299999999999284E+000
 0.309999999999300E+000
 0.319999999999319E+000
 0.329999999999352E+000
 0.339999999999368E+000
 0.349999999999401E+000
 0.359999999999421E+000
 0.369999999999446E+000
 0.379999999999474E+000
 0.389999999999491E+000
 0.399999999999526E+000
 0.409999999999542E+000
 0.419999999999574E+000
 0.429999999999594E+000
 0.439999999999619E+000
 0.449999999999647E+000
 0.459999999999674E+000
 0.469999999999699E+000
 0.479999999999719E+000
 0.489999999999752E+000
 0.499999999999760E+000
 0.509999999999771E+000
 0.519999999999807E+000
 0.529999999999824E+000
 0.539999999999844E+000
 0.549999999999876E+000
 0.559999999999893E+000
 0.569999999999930E+000
 0.579999999999947E+000
 0.589999999999981E+000
 0.600000000000000E+000
 0.000000000000000E+000
 0.999999999998288E-002
 0.199999999999657E-001
 0.299999999999453E-001
 0.399999999999282E-001
 0.499999999999139E-001
 0.599999999999008E-001
 0.699999999998850E-001
 0.799999999998659E-001
 0.899999999998395E-001
 0.999999999998120E-001
 0.109999999999786E+000
 0.119999999999763E+000
 0.129999999999736E+000
 0.139999999999709E+000
 0.149999999999682E+000
 0.159999999999655E+000
 0.169999999999629E+000
 0.179999999999602E+000
 0.189999999999575E+000
 0.199999999999548E+000
 0.209999999999521E+000
 0.219999999999494E+000
 0.229999999999478E+000
 0.239999999999451E+000
 0.249999999999424E+000
 0.259999999999397E+000
 0.269999999999370E+000
 0.279999999999343E+000
 0.289999999999316E+000
 0.299999999999299E+000
 0.309999999999315E+000
 0.319999999999333E+000
 0.329999999999366E+000
 0.339999999999382E+000
 0.349999999999414E+000
 0.359999999999433E+000
 0.369999999999458E+000
 0.379999999999485E+000
 0.389999999999503E+000
 0.399999999999536E+000
 0.409999999999552E+000
 0.419999999999584E+000
 0.429999999999603E+000
 0.439999999999627E+000
 0.449999999999654E+000
 0.459999999999681E+000
 0.469999999999705E+000
 0.479999999999725E+000
 0.489999999999757E+000
 0.499999999999765E+000
 0.509999999999775E+000
 0.519999999999810E+000
 0.529999999999827E+000
 0.539999999999846E+000
 0.549999999999878E+000
 0.559999999999895E+000
 0.569999999999931E+000
 0.579999999999948E+000
 0.589999999999981E+000
 0.600000000000000E+000
 0.000000000000000E+000
 0.999999999998328E-002
 0.199999999999666E-001
 0.299999999999466E-001
 0.399999999999301E-001
 0.499999999999162E-001
 0.599999999999035E-001
 0.699999999998882E-001
 0.799999999998695E-001
 0.899999999998436E-001
 0.999999999998167E-001
 0.109999999999791E+000
 0.119999999999769E+000
 0.129999999999742E+000
 0.139999999999716E+000
 0.149999999999689E+000
 0.159999999999663E+000
 0.169999999999637E+000
 0.179999999999610E+000
 0.189999999999585E+000
 0.199999999999558E+000
 0.209999999999532E+000
 0.219999999999505E+000
 0.229999999999489E+000
 0.239999999999463E+000
 0.249999999999436E+000
 0.259999999999410E+000
 0.269999999999384E+000
 0.279999999999358E+000
 0.289999999999331E+000
 0.299999999999315E+000
 0.309999999999330E+000
 0.319999999999347E+000
 0.329999999999380E+000
 0.339999999999395E+000
 0.349999999999427E+000
 0.359999999999445E+000
 0.369999999999469E+000
 0.379999999999496E+000
 0.389999999999513E+000
 0.399999999999547E+000
 0.409999999999561E+000
 0.419999999999593E+000
 0.429999999999612E+000
 0.439999999999635E+000
 0.449999999999662E+000
 0.459999999999688E+000
 0.469999999999712E+000
 0.479999999999731E+000
 0.489999999999762E+000
 0.499999999999770E+000
 0.509999999999779E+000
 0.519999999999813E+000
 0.529999999999829E+000
 0.539999999999848E+000
 0.549999999999880E+000
 0.559999999999896E+000
 0.569999999999932E+000
 0.579999999999949E+000
 0.589999999999981E+000
 0.600000000000000E+000
 0.000000000000000E+000
 0.999999999998366E-002
 0.199999999999676E-001
 0.299999999999480E-001
 0.399999999999321E-001
 0.499999999999184E-001
 0.599999999999063E-001
 0.699999999998913E-001
 0.799999999998730E-001
 0.899999999998479E-001
 0.999999999998213E-001
 0.109999999999796E+000
 0.119999999999774E+000
 0.129999999999748E+000
 0.139999999999722E+000
 0.149999999999697E+000
 0.159999999999671E+000
 0.169999999999645E+000
 0.179999999999619E+000
 0.189999999999594E+000
 0.199999999999568E+000
 0.209999999999543E+000
 0.219999999999516E+000
 0.229999999999501E+000
 0.239999999999475E+000
 0.249999999999449E+000
 0.259999999999424E+000
 0.269999999999397E+000
 0.279999999999372E+000
 0.289999999999346E+000
 0.299999999999330E+000
 0.309999999999345E+000
 0.319999999999362E+000
 0.329999999999394E+000
 0.339999999999408E+000
 0.349999999999440E+000
 0.359999999999457E+000
 0.369999999999481E+000
 0.379999999999508E+000
 0.389999999999524E+000
 0.399999999999557E+000
 0.409999999999571E+000
 0.419999999999602E+000
 0.429999999999620E+000
 0.439999999999643E+000
 0.449999999999669E+000
 0.459999999999695E+000
 0.469999999999718E+000
 0.479999999999737E+000
 0.489999999999767E+000
 0.499999999999775E+000
 0.509999999999783E+000
 0.519999999999816E+000
 0.529999999999832E+000
 0.539999999999850E+000
 0.549999999999881E+000
 0.559999999999898E+000
 0.569999999999933E+000
 0.579999999999949E+000
 0.589999999999981E+000
 0.600000000000000E+000
 0.000000000000000E+000
 0.999999999998405E-002
 0.199999999999685E-001
 0.299999999999493E-001
 0.399999999999340E-001
 0.499999999999207E-001
 0.599999999999090E-001
 0.699999999998945E-001
 0.799999999998765E-001
 0.899999999998521E-001
 0.999999999998259E-001
 0.109999999999801E+000
 0.119999999999780E+000
 0.129999999999754E+000
 0.139999999999729E+000
 0.149999999999704E+000
 0.159999999999679E+000
 0.169999999999654E+000
 0.179999999999628E+000
 0.189999999999604E+000
 0.199999999999578E+000
 0.209999999999553E+000
 0.219999999999528E+000
 0.229999999999513E+000
 0.239999999999487E+000
 0.249999999999462E+000
 0.259999999999437E+000
 0.269999999999411E+000
 0.279999999999387E+000
 0.289999999999361E+000
 0.299999999999345E+000
 0.309999999999360E+000
 0.319999999999376E+000
 0.329999999999408E+000
 0.339999999999422E+000
 0.349999999999452E+000
 0.359999999999470E+000
 0.369999999999493E+000
 0.379999999999519E+000
 0.389999999999535E+000
 0.399999999999567E+000
 0.409999999999581E+000
 0.419999999999611E+000
 0.429999999999629E+000
 0.439999999999651E+000
 0.449999999999677E+000
 0.459999999999702E+000
 0.469999999999724E+000
 0.479999999999742E+000
 0.489999999999772E+000
 0.499999999999780E+000
 0.509999999999787E+000
 0.519999999999820E+000
 0.529999999999835E+000
 0.539999999999853E+000
 0.549999999999883E+000
 0.559999999999900E+000
 0.569999999999934E+000
 0.579999999999950E+000
 0.589999999999982E+000
 0.600000000000000E+000
 0.000000000000000E+000
 0.999999999998444E-002
 0.199999999999694E-001
 0.299999999999507E-001
 0.399999999999359E-001
 0.499999999999229E-001
 0.599999999999118E-001
 0.699999999998976E-001
 0.799999999998801E-001
 0.899999999998563E-001
 0.999999999998305E-001
 0.109999999999806E+000
 0.119999999999786E+000
 0.129999999999760E+000
 0.139999999999736E+000
 0.149999999999711E+000
 0.159999999999687E+000
 0.169999999999662E+000
 0.179999999999637E+000
 0.189999999999613E+000
 0.199999999999588E+000
 0.209999999999564E+000
 0.219999999999539E+000
 0.229999999999524E+000
 0.239999999999500E+000
 0.249999999999475E+000
 0.259999999999451E+000
 0.269999999999425E+000
 0.279999999999401E+000
 0.289999999999376E+000
 0.299999999999361E+000
 0.309999999999375E+000
 0.319999999999391E+000
 0.329999999999422E+000
 0.339999999999435E+000
 0.349999999999465E+000
 0.359999999999482E+000
 0.369999999999504E+000
 0.379999999999530E+000
 0.389999999999546E+000
 0.399999999999577E+000
 0.409999999999591E+000
 0.419999999999620E+000
 0.429999999999637E+000
 0.439999999999659E+000
 0.449999999999684E+000
 0.459999999999709E+000
 0.469999999999731E+000
 0.479999999999748E+000
 0.489999999999777E+000
 0.499999999999784E+000
 0.509999999999791E+000
 0.519999999999823E+000
 0.529999999999838E+000
 0.539999999999855E+000
 0.549999999999885E+000
 0.559999999999901E+000
 0.569999999999935E+000
 0.579999999999951E+000
 0.589999999999982E+000
 0.600000000000000E+000
 0.000000000000000E+000
 0.999999999998483E-002
 0.199999999999704E-001
 0.299999999999520E-001
 0.399999999999378E-001
 0.499999999999252E-001
 0.599999999999145E-001
 0.699999999999007E-001
 0.799999999998836E-001
 0.899999999998605E-001
 0.999999999998351E-001
 0.109999999999811E+000
 0.119999999999791E+000
 0.129999999999766E+000
 0.139999999999742E+000
 0.149999999999718E+000
 0.159999999999695E+000
 0.169999999999671E+000
 0.179999999999646E+000
 0.189999999999623E+000
 0.199999999999598E+000
 0.209999999999575E+000
 0.219999999999550E+000
 0.229999999999536E+000
 0.239999999999512E+000
 0.249999999999487E+000
 0.259999999999464E+000
 0.269999999999439E+000
 0.279999999999416E+000
 0.289999999999391E+000
 0.299999999999376E+000
 0.309999999999390E+000
 0.319999999999405E+000
 0.329999999999436E+000
 0.339999999999448E+000
 0.349999999999478E+000
 0.359999999999494E+000
 0.369999999999516E+000
 0.379999999999542E+000
 0.389999999999557E+000
 0.399999999999587E+000
 0.409999999999600E+000
 0.419999999999629E+000
 0.429999999999646E+000
 0.439999999999667E+000
 0.449999999999691E+000
 0.459999999999716E+000
 0.469999999999737E+000
 0.479999999999754E+000
 0.489999999999783E+000
 0.499999999999789E+000
 0.509999999999796E+000
 0.519999999999826E+000
 0.529999999999840E+000
 0.539999999999857E+000
 0.549999999999887E+000
 0.559999999999903E+000
 0.569999999999936E+000
 0.579999999999952E+000
 0.589999999999983E+000
 0.600000000000000E+000
 0.000000000000000E+000
 0.999999999998523E-002
 0.199999999999713E-001
 0.299999999999533E-001
 0.399999999999398E-001
 0.499999999999274E-001
 0.599999999999173E-001
 0.699999999999039E-001
 0.799999999998871E-001
 0.899999999998647E-001
 0.999999999998398E-001
 0.109999999999816E+000
 0.119999999999797E+000
 0.129999999999773E+000
 0.139999999999749E+000
 0.149999999999726E+000
 0.159999999999703E+000
 0.169999999999679E+000
 0.179999999999655E+000
 0.189999999999632E+000
 0.199999999999608E+000
 0.209999999999585E+000
 0.219999999999561E+000
 0.229999999999547E+000
 0.239999999999524E+000
 0.249999999999500E+000
 0.259999999999477E+000
 0.269999999999453E+000
 0.279999999999430E+000
 0.289999999999406E+000
 0.299999999999391E+000
 0.309999999999405E+000
 0.319999999999420E+000
 0.329999999999449E+000
 0.339999999999462E+000
 0.349999999999491E+000
 0.359999999999506E+000
 0.369999999999528E+000
 0.379999999999553E+000
 0.389999999999567E+000
 0.399999999999597E+000
 0.409999999999610E+000
 0.419999999999638E+000
 0.429999999999654E+000
 0.439999999999675E+000
 0.449999999999699E+000
 0.459999999999722E+000
 0.469999999999743E+000
 0.479999999999760E+000
 0.489999999999788E+000
 0.499999999999794E+000
 0.509999999999799E+000
 0.519999999999829E+000
 0.529999999999843E+000
 0.539999999999859E+000
 0.549999999999888E+000
 0.559999999999904E+000
 0.569999999999937E+000
 0.579999999999953E+000
 0.589999999999983E+000
 0.600000000000000E+000
 0.000000000000000E+000
 0.999999999998561E-002
 0.199999999999723E-001
 0.299999999999547E-001
 0.399999999999417E-001
 0.499999999999297E-001
 0.599999999999200E-001
 0.699999999999070E-001
 0.799999999998907E-001
 0.899999999998689E-001
 0.999999999998444E-001
 0.109999999999821E+000
 0.119999999999802E+000
 0.129999999999779E+000
 0.139999999999756E+000
 0.149999999999733E+000
 0.159999999999711E+000
 0.169999999999688E+000
 0.179999999999664E+000
 0.189999999999642E+000
 0.199999999999618E+000
 0.209999999999596E+000
 0.219999999999572E+000
 0.229999999999559E+000
 0.239999999999536E+000
 0.249999999999513E+000
 0.259999999999491E+000
 0.269999999999467E+000
 0.279999999999445E+000
 0.289999999999421E+000
 0.299999999999407E+000
 0.309999999999420E+000
 0.319999999999434E+000
 0.329999999999463E+000
 0.339999999999475E+000
 0.349999999999503E+000
 0.359999999999518E+000
 0.369999999999540E+000
 0.379999999999564E+000
 0.389999999999578E+000
 0.399999999999608E+000
 0.409999999999620E+000
 0.419999999999647E+000
 0.429999999999663E+000
 0.439999999999683E+000
 0.449999999999706E+000
 0.459999999999729E+000
 0.469999999999750E+000
 0.479999999999766E+000
 0.489999999999793E+000
 0.499999999999799E+000
 0.509999999999803E+000
 0.519999999999833E+000
 0.529999999999846E+000
 0.539999999999862E+000
 0.549999999999890E+000
 0.559999999999906E+000
 0.569999999999937E+000
 0.579999999999954E+000
 0.589999999999983E+000
 0.600000000000000E+000
 0.000000000000000E+000
 0.999999999998600E-002
 0.199999999999732E-001
 0.299999999999560E-001
 0.399999999999436E-001
 0.499999999999320E-001
 0.599999999999228E-001
 0.699999999999102E-001
 0.799999999998942E-001
 0.899999999998731E-001
 0.999999999998490E-001
 0.109999999999826E+000
 0.119999999999808E+000
 0.129999999999785E+000
 0.139999999999763E+000
 0.149999999999740E+000
 0.159999999999718E+000
 0.169999999999696E+000
 0.179999999999673E+000
 0.189999999999651E+000
 0.199999999999628E+000
 0.209999999999607E+000
 0.219999999999583E+000
 0.229999999999571E+000
 0.239999999999548E+000
 0.249999999999525E+000
 0.259999999999504E+000
 0.269999999999480E+000
 0.279999999999459E+000
 0.289999999999436E+000
 0.299999999999422E+000
 0.309999999999435E+000
 0.319999999999449E+000
 0.329999999999477E+000
 0.339999999999488E+000
 0.349999999999516E+000
 0.359999999999531E+000
 0.369999999999551E+000
 0.379999999999576E+000
 0.389999999999589E+000
 0.399999999999618E+000
 0.409999999999629E+000
 0.419999999999656E+000
 0.429999999999672E+000
 0.439999999999691E+000
 0.449999999999714E+000
 0.459999999999736E+000
 0.469999999999756E+000
 0.479999999999771E+000
 0.489999999999798E+000
 0.499999999999803E+000
 0.509999999999807E+000
 0.519999999999836E+000
 0.529999999999849E+000
 0.539999999999864E+000
 0.549999999999892E+000
 0.559999999999908E+000
 0.569999999999939E+000
 0.579999999999955E+000
 0.589999999999983E+000
 0.600000000000000E+000
 0.000000000000000E+000
 0.999999999998640E-002
 0.199999999999742E-001
 0.299999999999573E-001
 0.399999999999455E-001
 0.499999999999342E-001
 0.599999999999255E-001
 0.699999999999133E-001
 0.799999999998978E-001
 0.899999999998773E-001
 0.999999999998537E-001
 0.109999999999831E+000
 0.119999999999814E+000
 0.129999999999791E+000
 0.139999999999769E+000
 0.149999999999748E+000
 0.159999999999726E+000
 0.169999999999704E+000
 0.179999999999682E+000
 0.189999999999661E+000
 0.199999999999638E+000
 0.209999999999617E+000
 0.219999999999595E+000
 0.229999999999582E+000
 0.239999999999561E+000
 0.249999999999538E+000
 0.259999999999517E+000
 0.269999999999494E+000
 0.279999999999474E+000
 0.289999999999451E+000
 0.299999999999437E+000
 0.309999999999450E+000
 0.319999999999463E+000
 0.329999999999491E+000
 0.339999999999502E+000
 0.349999999999529E+000
 0.359999999999543E+000
 0.369999999999563E+000
 0.379999999999587E+000
 0.389999999999600E+000
 0.399999999999628E+000
 0.409999999999639E+000
 0.419999999999665E+000
 0.429999999999680E+000
 0.439999999999699E+000
 0.449999999999721E+000
 0.459999999999743E+000
 0.469999999999762E+000
 0.479999999999777E+000
 0.489999999999803E+000
 0.499999999999808E+000
 0.509999999999811E+000
 0.519999999999839E+000
 0.529999999999852E+000
 0.539999999999866E+000
 0.549999999999893E+000
 0.559999999999909E+000
 0.569999999999939E+000
 0.579999999999955E+000
 0.589999999999983E+000
 0.600000000000000E+000
 0.000000000000000E+000
 0.999999999998679E-002
 0.199999999999751E-001
 0.299999999999587E-001
 0.399999999999475E-001
 0.499999999999364E-001
 0.599999999999283E-001
 0.699999999999164E-001
 0.799999999999013E-001
 0.899999999998815E-001
 0.999999999998583E-001
 0.109999999999836E+000
 0.119999999999819E+000
 0.129999999999797E+000
 0.139999999999776E+000
 0.149999999999755E+000
 0.159999999999734E+000
 0.169999999999713E+000
 0.179999999999691E+000
 0.189999999999670E+000
 0.199999999999648E+000
 0.209999999999628E+000
 0.219999999999606E+000
 0.229999999999594E+000
 0.239999999999573E+000
 0.249999999999551E+000
 0.259999999999531E+000
 0.269999999999508E+000
 0.279999999999488E+000
 0.289999999999466E+000
 0.299999999999453E+000
 0.309999999999465E+000
 0.319999999999478E+000
 0.329999999999505E+000
 0.339999999999515E+000
 0.349999999999541E+000
 0.359999999999555E+000
 0.369999999999575E+000
 0.379999999999598E+000
 0.389999999999611E+000
 0.399999999999638E+000
 0.409999999999649E+000
 0.419999999999674E+000
 0.429999999999689E+000
 0.439999999999707E+000
 0.449999999999729E+000
 0.459999999999750E+000
 0.469999999999768E+000
 0.479999999999783E+000
 0.489999999999808E+000
 0.499999999999813E+000
 0.509999999999815E+000
 0.519999999999842E+000
 0.529999999999854E+000
 0.539999999999869E+000
 0.549999999999895E+000
 0.559999999999911E+000
 0.569999999999940E+000
 0.579999999999956E+000
 0.589999999999984E+000
 0.600000000000000E+000
 0.000000000000000E+000
 0.999999999998717E-002
 0.199999999999761E-001
 0.299999999999600E-001
 0.399999999999494E-001
 0.499999999999387E-001
 0.599999999999311E-001
 0.699999999999196E-001
 0.799999999999048E-001
 0.899999999998857E-001
 0.999999999998630E-001
 0.109999999999841E+000
 0.119999999999825E+000
 0.129999999999803E+000
 0.139999999999782E+000
 0.149999999999762E+000
 0.159999999999742E+000
 0.169999999999721E+000
 0.179999999999700E+000
 0.189999999999680E+000
 0.199999999999658E+000
 0.209999999999639E+000
 0.219999999999617E+000
 0.229999999999606E+000
 0.239999999999585E+000
 0.249999999999563E+000
 0.259999999999544E+000
 0.269999999999522E+000
 0.279999999999502E+000
 0.289999999999481E+000
 0.299999999999468E+000
 0.309999999999480E+000
 0.319999999999492E+000
 0.329999999999519E+000
 0.339999999999529E+000
 0.349999999999554E+000
 0.359999999999567E+000
 0.369999999999586E+000
 0.379999999999609E+000
 0.389999999999621E+000
 0.399999999999648E+000
 0.409999999999659E+000
 0.419999999999683E+000
 0.429999999999697E+000
 0.439999999999715E+000
 0.449999999999736E+000
 0.459999999999757E+000
 0.469999999999775E+000
 0.479999999999789E+000
 0.489999999999814E+000
 0.499999999999818E+000
 0.509999999999819E+000
 0.519999999999846E+000
 0.529999999999857E+000
 0.539999999999871E+000
 0.549999999999897E+000
 0.559999999999913E+000
 0.569999999999941E+000
 0.579999999999957E+000
 0.589999999999984E+000
 0.600000000000000E+000
 0.000000000000000E+000
 0.999999999998756E-002
 0.199999999999770E-001
 0.299999999999614E-001
 0.399999999999513E-001
 0.499999999999410E-001
 0.599999999999338E-001
 0.699999999999227E-001
 0.799999999999084E-001
 0.899999999998899E-001
 0.999999999998676E-001
 0.109999999999846E+000
 0.119999999999830E+000
 0.129999999999809E+000
 0.139999999999789E+000
 0.149999999999769E+000
 0.159999999999750E+000
 0.169999999999730E+000
 0.179999999999709E+000
 0.189999999999690E+000
 0.199999999999668E+000
 0.209999999999649E+000
 0.219999999999628E+000
 0.229999999999617E+000
 0.239999999999597E+000
 0.249999999999576E+000
 0.259999999999557E+000
 0.269999999999536E+000
 0.279999999999517E+000
 0.289999999999496E+000
 0.299999999999483E+000
 0.309999999999495E+000
 0.319999999999507E+000
 0.329999999999532E+000
 0.339999999999542E+000
 0.349999999999567E+000
 0.359999999999580E+000
 0.369999999999598E+000
 0.379999999999621E+000
 0.389999999999632E+000
 0.399999999999658E+000
 0.409999999999668E+000
 0.419999999999693E+000
 0.429999999999706E+000
 0.439999999999723E+000
 0.449999999999744E+000
 0.459999999999764E+000
 0.469999999999781E+000
 0.479999999999794E+000
 0.489999999999819E+000
 0.499999999999822E+000
 0.509999999999823E+000
 0.519999999999849E+000
 0.529999999999860E+000
 0.539999999999873E+000
 0.549999999999899E+000
 0.559999999999914E+000
 0.569999999999942E+000
 0.579999999999958E+000
 0.589999999999984E+000
 0.600000000000000E+000
 0.000000000000000E+000
 0.999999999998795E-002
 0.199999999999780E-001
 0.299999999999627E-001
 0.399999999999532E-001
 0.499999999999432E-001
 0.599999999999365E-001
 0.699999999999259E-001
 0.799999999999119E-001
 0.899999999998941E-001
 0.999999999998722E-001
 0.109999999999851E+000
 0.119999999999836E+000
 0.129999999999816E+000
 0.139999999999796E+000
 0.149999999999777E+000
 0.159999999999758E+000
 0.169999999999738E+000
 0.179999999999717E+000
 0.189999999999699E+000
 0.199999999999678E+000
 0.209999999999660E+000
 0.219999999999639E+000
 0.229999999999629E+000
 0.239999999999609E+000
 0.249999999999589E+000
 0.259999999999571E+000
 0.269999999999549E+000
 0.279999999999532E+000
 0.289999999999511E+000
 0.299999999999499E+000
 0.309999999999510E+000
 0.319999999999521E+000
 0.329999999999546E+000
 0.339999999999555E+000
 0.349999999999580E+000
 0.359999999999592E+000
 0.369999999999609E+000
 0.379999999999632E+000
 0.389999999999643E+000
 0.399999999999669E+000
 0.409999999999678E+000
 0.419999999999702E+000
 0.429999999999714E+000
 0.439999999999731E+000
 0.449999999999751E+000
 0.459999999999770E+000
 0.469999999999787E+000
 0.479999999999800E+000
 0.489999999999824E+000
 0.499999999999827E+000
 0.509999999999827E+000
 0.519999999999852E+000
 0.529999999999863E+000
 0.539999999999876E+000
 0.549999999999900E+000
 0.559999999999916E+000
 0.569999999999943E+000
 0.579999999999959E+000
 0.589999999999985E+000
 0.600000000000000E+000
 0.000000000000000E+000
 0.999999999998834E-002
 0.199999999999789E-001
 0.299999999999640E-001
 0.399999999999551E-001
 0.499999999999455E-001
 0.599999999999393E-001
 0.699999999999290E-001
 0.799999999999154E-001
 0.899999999998983E-001
 0.999999999998769E-001
 0.109999999999856E+000
 0.119999999999842E+000
 0.129999999999822E+000
 0.139999999999803E+000
 0.149999999999784E+000
 0.159999999999765E+000
 0.169999999999746E+000
 0.179999999999726E+000
 0.189999999999709E+000
 0.199999999999688E+000
 0.209999999999671E+000
 0.219999999999650E+000
 0.229999999999641E+000
 0.239999999999622E+000
 0.249999999999602E+000
 0.259999999999584E+000
 0.269999999999563E+000
 0.279999999999546E+000
 0.289999999999526E+000
 0.299999999999514E+000
 0.309999999999525E+000
 0.319999999999536E+000
 0.329999999999560E+000
 0.339999999999569E+000
 0.349999999999592E+000
 0.359999999999604E+000
 0.369999999999621E+000
 0.379999999999643E+000
 0.389999999999654E+000
 0.399999999999679E+000
 0.409999999999688E+000
 0.419999999999711E+000
 0.429999999999723E+000
 0.439999999999739E+000
 0.449999999999758E+000
 0.459999999999777E+000
 0.469999999999794E+000
 0.479999999999806E+000
 0.489999999999829E+000
 0.499999999999832E+000
 0.509999999999831E+000
 0.519999999999855E+000
 0.529999999999865E+000
 0.539999999999878E+000
 0.549999999999902E+000
 0.559999999999918E+000
 0.569999999999944E+000
 0.579999999999960E+000
 0.589999999999985E+000
 0.600000000000000E+000
 0.000000000000000E+000
 0.999999999998873E-002
 0.199999999999799E-001
 0.299999999999654E-001
 0.399999999999571E-001
 0.499999999999477E-001
 0.599999999999420E-001
 0.699999999999321E-001
 0.799999999999190E-001
 0.899999999999025E-001
 0.999999999998815E-001
 0.109999999999861E+000
 0.119999999999847E+000
 0.129999999999828E+000
 0.139999999999809E+000
 0.149999999999791E+000
 0.159999999999773E+000
 0.169999999999755E+000
 0.179999999999735E+000
 0.189999999999718E+000
 0.199999999999698E+000
 0.209999999999681E+000
 0.219999999999661E+000
 0.229999999999652E+000
 0.239999999999634E+000
 0.249999999999614E+000
 0.259999999999597E+000
 0.269999999999577E+000
 0.279999999999560E+000
 0.289999999999541E+000
 0.299999999999529E+000
 0.309999999999539E+000
 0.319999999999550E+000
 0.329999999999574E+000
 0.339999999999582E+000
 0.349999999999605E+000
 0.359999999999616E+000
 0.369999999999633E+000
 0.379999999999655E+000
 0.389999999999665E+000
 0.399999999999689E+000
 0.409999999999697E+000
 0.419999999999720E+000
 0.429999999999732E+000
 0.439999999999747E+000
 0.449999999999766E+000
 0.459999999999784E+000
 0.469999999999800E+000
 0.479999999999812E+000
 0.489999999999834E+000
 0.499999999999837E+000
 0.509999999999835E+000
 0.519999999999859E+000
 0.529999999999868E+000
 0.539999999999880E+000
 0.549999999999904E+000
 0.559999999999919E+000
 0.569999999999945E+000
 0.579999999999961E+000
 0.589999999999985E+000
 0.600000000000000E+000
 0.000000000000000E+000
 0.999999999998912E-002
 0.199999999999808E-001
 0.299999999999667E-001
 0.399999999999590E-001
 0.499999999999500E-001
 0.599999999999448E-001
 0.699999999999353E-001
 0.799999999999225E-001
 0.899999999999067E-001
 0.999999999998861E-001
 0.109999999999866E+000
 0.119999999999853E+000
 0.129999999999834E+000
 0.139999999999816E+000
 0.149999999999798E+000
 0.159999999999781E+000
 0.169999999999763E+000
 0.179999999999744E+000
 0.189999999999728E+000
 0.199999999999708E+000