 VARIABLES ="x" "y" "z" "Tw" "qw"
 ZONE  T = B1F1, I=1, J=101, K=2, DATAPACKING=BLOCK, VARLOCATION=([1-3]=NODAL,[4-5]=CELLCENTERED), SOLUTIONTIME=0.277050000000000E+005, STRANDID = 0
 0.000000000000000E+000
 0.000000000000000E+000
 0.000000000000000E+000
 0.000000000000000E+000
 0.000000000000000E+000
 0.000000000000000E+000
 0.000000000000000E+000
 0.000000000000000E+000
 0.000000000000000E+000
 0.000000000000000E+000
 0.000000000000000E+000
 0.000000000000000E+000
 0.000000000000000E+000
 0.000000000000000E+000
 0.000000000000000E+000
 0.000000000000000E+000
 0.000000000000000E+000
 0.000000000000000E+000
 0.000000000000000E+000
 0.000000000000000E+000
 0.000000000000000E+000
 0.000000000000000E+000
 0.000000000000000E+000
 0.000000000000000E+000
 0.000000000000000E+000
 0.000000000000000E+000
 0.000000000000000E+000
 0.000000000000000E+000
 0.000000000000000E+000
 0.000000000000000E+000
 0.000000000000000E+000
 0.000000000000000E+000
 0.000000000000000E+000
 0.000000000000000E+000
 0.000000000000000E+000
 0.000000000000000E+000
 0.000000000000000E+000
 0.000000000000000E+000
 0.000000000000000E+000
 0.000000000000000E+000
 0.000000000000000E+000
 0.000000000000000E+000
 0.000000000000000E+000
 0.000000000000000E+000
 0.000000000000000E+000
 0.000000000000000E+000
 0.000000000000000E+000
 0.000000000000000E+000
 0.000000000000000E+000
 0.000000000000000E+000
 0.000000000000000E+000
 0.000000000000000E+000
 0.000000000000000E+000
 0.000000000000000E+000
 0.000000000000000E+000
 0.000000000000000E+000
 0.000000000000000E+000
 0.000000000000000E+000
 0.000000000000000E+000
 0.000000000000000E+000
 0.000000000000000E+000
 0.000000000000000E+000
 0.000000000000000E+000
 0.000000000000000E+000
 0.000000000000000E+000
 0.000000000000000E+000
 0.000000000000000E+000
 0.000000000000000E+000
 0.000000000000000E+000
 0.000000000000000E+000
 0.000000000000000E+000
 0.000000000000000E+000
 0.000000000000000E+000
 0.000000000000000E+000
 0.000000000000000E+000
 0.000000000000000E+000
 0.000000000000000E+000
 0.000000000000000E+000
 0.000000000000000E+000
 0.000000000000000E+000
 0.000000000000000E+000
 0.000000000000000E+000
 0.000000000000000E+000
 0.000000000000000E+000
 0.000000000000000E+000
 0.000000000000000E+000
 0.000000000000000E+000
 0.000000000000000E+000
 0.000000000000000E+000
 0.000000000000000E+000
 0.000000000000000E+000
 0.000000000000000E+000
 0.000000000000000E+000
 0.000000000000000E+000
 0.000000000000000E+000
 0.000000000000000E+000
 0.000000000000000E+000
 0.000000000000000E+000
 0.000000000000000E+000
 0.000000000000000E+000
 0.000000000000000E+000
 0.000000000000000E+000
 0.000000000000000E+000
 0.000000000000000E+000
 0.000000000000000E+000
 0.000000000000000E+000
 0.000000000000000E+000
 0.000000000000000E+000
 0.000000000000000E+000
 0.000000000000000E+000
 0.000000000000000E+000
 0.000000000000000E+000
 0.000000000000000E+000
 0.000000000000000E+000
 0.000000000000000E+000
 0.000000000000000E+000
 0.000000000000000E+000
 0.000000000000000E+000
 0.000000000000000E+000
 0.000000000000000E+000
 0.000000000000000E+000
 0.000000000000000E+000
 0.000000000000000E+000
 0.000000000000000E+000
 0.000000000000000E+000
 0.000000000000000E+000
 0.000000000000000E+000
 0.000000000000000E+000
 0.000000000000000E+000
 0.000000000000000E+000
 0.000000000000000E+000
 0.000000000000000E+000
 0.000000000000000E+000
 0.000000000000000E+000
 0.000000000000000E+000
 0.000000000000000E+000
 0.000000000000000E+000
 0.000000000000000E+000
 0.000000000000000E+000
 0.000000000000000E+000
 0.000000000000000E+000
 0.000000000000000E+000
 0.000000000000000E+000
 0.000000000000000E+000
 0.000000000000000E+000
 0.000000000000000E+000
 0.000000000000000E+000
 0.000000000000000E+000
 0.000000000000000E+000
 0.000000000000000E+000
 0.000000000000000E+000
 0.000000000000000E+000
 0.000000000000000E+000
 0.000000000000000E+000
 0.000000000000000E+000
 0.000000000000000E+000
 0.000000000000000E+000
 0.000000000000000E+000
 0.000000000000000E+000
 0.000000000000000E+000
 0.000000000000000E+000
 0.000000000000000E+000
 0.000000000000000E+000
 0.000000000000000E+000
 0.000000000000000E+000
 0.000000000000000E+000
 0.000000000000000E+000
 0.000000000000000E+000
 0.000000000000000E+000
 0.000000000000000E+000
 0.000000000000000E+000
 0.000000000000000E+000
 0.000000000000000E+000
 0.000000000000000E+000
 0.000000000000000E+000
 0.000000000000000E+000
 0.000000000000000E+000
 0.000000000000000E+000
 0.000000000000000E+000
 0.000000000000000E+000
 0.000000000000000E+000
 0.000000000000000E+000
 0.000000000000000E+000
 0.000000000000000E+000
 0.000000000000000E+000
 0.000000000000000E+000
 0.000000000000000E+000
 0.000000000000000E+000
 0.000000000000000E+000
 0.000000000000000E+000
 0.000000000000000E+000
 0.000000000000000E+000
 0.000000000000000E+000
 0.000000000000000E+000
 0.000000000000000E+000
 0.000000000000000E+000
 0.000000000000000E+000
 0.000000000000000E+000
 0.000000000000000E+000
 0.000000000000000E+000
 0.000000000000000E+000
 0.000000000000000E+000
 0.000000000000000E+000
 0.100000000000416E-001
 0.200000000000832E-001
 0.300000000001248E-001
 0.400000000001665E-001
 0.500000000002081E-001
 0.600000000002497E-001
 0.700000000002913E-001
 0.800000000003329E-001
 0.900000000003746E-001
 0.100000000000416E+000
 0.110000000000458E+000
 0.120000000000499E+000
 0.130000000000541E+000
 0.140000000000583E+000
 0.150000000000624E+000
 0.160000000000666E+000
 0.170000000000708E+000
 0.180000000000749E+000
 0.190000000000791E+000
 0.200000000000833E+000
 0.210000000000874E+000
 0.220000000000916E+000
 0.230000000000957E+000
 0.240000000000999E+000
 0.250000000001041E+000
 0.260000000001082E+000
 0.270000000001124E+000
 0.280000000001165E+000
 0.290000000001207E+000
 0.300000000001249E+000
 0.310000000001290E+000
 0.320000000001332E+000
 0.330000000001373E+000
 0.340000000001415E+000
 0.350000000001457E+000
 0.360000000001498E+000
 0.370000000001540E+000
 0.380000000001582E+000
 0.390000000001623E+000
 0.400000000001665E+000
 0.410000000001707E+000
 0.420000000001748E+000
 0.430000000001790E+000
 0.440000000001831E+000
 0.450000000001873E+000
 0.460000000001915E+000
 0.470000000001956E+000
 0.480000000001998E+000
 0.490000000002040E+000
 0.500000000002059E+000
 0.510000000002012E+000
 0.520000000001942E+000
 0.530000000001873E+000
 0.540000000001804E+000
 0.550000000001734E+000
 0.560000000001665E+000
 0.570000000001596E+000
 0.580000000001526E+000
 0.590000000001457E+000
 0.600000000001387E+000
 0.610000000001318E+000
 0.620000000001249E+000
 0.630000000001179E+000
 0.640000000001110E+000
 0.650000000001041E+000
 0.660000000000971E+000
 0.670000000000902E+000
 0.680000000000833E+000
 0.690000000000763E+000
 0.700000000000694E+000
 0.710000000000624E+000
 0.720000000000555E+000
 0.730000000000486E+000
 0.740000000000416E+000
 0.750000000000347E+000
 0.760000000000278E+000
 0.770000000000208E+000
 0.780000000000139E+000
 0.790000000000069E+000
 0.800000000000000E+000
 0.809999999999931E+000
 0.819999999999861E+000
 0.829999999999792E+000
 0.839999999999722E+000
 0.849999999999653E+000
 0.859999999999584E+000
 0.869999999999522E+000
 0.879999999999508E+000
 0.889999999999542E+000
 0.899999999999584E+000
 0.909999999999625E+000
 0.919999999999667E+000
 0.929999999999709E+000
 0.939999999999750E+000
 0.949999999999792E+000
 0.959999999999833E+000
 0.969999999999875E+000
 0.979999999999917E+000
 0.989999999999958E+000
 0.100000000000000E+001
 0.000000000000000E+000
 0.100000000000416E-001
 0.200000000000832E-001
 0.300000000001248E-001
 0.400000000001665E-001
 0.500000000002081E-001
 0.600000000002497E-001
 0.700000000002913E-001
 0.800000000003329E-001
 0.900000000003746E-001
 0.100000000000416E+000
 0.110000000000458E+000
 0.120000000000499E+000
 0.130000000000541E+000
 0.140000000000583E+000
 0.150000000000624E+000
 0.160000000000666E+000
 0.170000000000708E+000
 0.180000000000749E+000
 0.190000000000791E+000
 0.200000000000833E+000
 0.210000000000874E+000
 0.220000000000916E+000
 0.230000000000957E+000
 0.240000000000999E+000
 0.250000000001041E+000
 0.260000000001082E+000
 0.270000000001124E+000
 0.280000000001165E+000
 0.290000000001207E+000
 0.300000000001249E+000
 0.310000000001290E+000
 0.320000000001332E+000
 0.330000000001373E+000
 0.340000000001415E+000
 0.350000000001457E+000
 0.360000000001498E+000
 0.370000000001540E+000
 0.380000000001582E+000
 0.390000000001623E+000
 0.400000000001665E+000
 0.410000000001707E+000
 0.420000000001748E+000
 0.430000000001790E+000
 0.440000000001831E+000
 0.450000000001873E+000
 0.460000000001915E+000
 0.470000000001956E+000
 0.480000000001998E+000
 0.490000000002040E+000
 0.500000000002059E+000
 0.510000000002012E+000
 0.520000000001942E+000
 0.530000000001873E+000
 0.540000000001804E+000
 0.550000000001734E+000
 0.560000000001665E+000
 0.570000000001596E+000
 0.580000000001526E+000
 0.590000000001457E+000
 0.600000000001387E+000
 0.610000000001318E+000
 0.620000000001249E+000
 0.630000000001179E+000
 0.640000000001110E+000
 0.650000000001041E+000
 0.660000000000971E+000
 0.670000000000902E+000
 0.680000000000833E+000
 0.690000000000763E+000
 0.700000000000694E+000
 0.710000000000624E+000
 0.720000000000555E+000
 0.730000000000486E+000
 0.740000000000416E+000
 0.750000000000347E+000
 0.760000000000278E+000
 0.770000000000208E+000
 0.780000000000139E+000
 0.790000000000069E+000
 0.800000000000000E+000
 0.809999999999931E+000
 0.819999999999861E+000
 0.829999999999792E+000
 0.839999999999722E+000
 0.849999999999653E+000
 0.859999999999584E+000
 0.869999999999522E+000
 0.879999999999508E+000
 0.889999999999542E+000
 0.899999999999584E+000
 0.909999999999625E+000
 0.919999999999667E+000
 0.929999999999709E+000
 0.939999999999750E+000
 0.949999999999792E+000
 0.959999999999833E+000
 0.969999999999875E+000
 0.979999999999917E+000
 0.989999999999958E+000
 0.100000000000000E+001
-0.500000000000000E-002
-0.500000000000000E-002
-0.500000000000000E-002
-0.500000000000000E-002
-0.500000000000000E-002
-0.500000000000000E-002
-0.500000000000000E-002
-0.500000000000000E-002
-0.500000000000000E-002
-0.500000000000000E-002
-0.500000000000000E-002
-0.500000000000000E-002
-0.500000000000000E-002
-0.500000000000000E-002
-0.500000000000000E-002
-0.500000000000000E-002
-0.500000000000000E-002
-0.500000000000000E-002
-0.500000000000000E-002
-0.500000000000000E-002
-0.500000000000000E-002
-0.500000000000000E-002
-0.500000000000000E-002
-0.500000000000000E-002
-0.500000000000000E-002
-0.500000000000000E-002
-0.500000000000000E-002
-0.500000000000000E-002
-0.500000000000000E-002
-0.500000000000000E-002
-0.500000000000000E-002
-0.500000000000000E-002
-0.500000000000000E-002
-0.500000000000000E-002
-0.500000000000000E-002
-0.500000000000000E-002
-0.500000000000000E-002
-0.500000000000000E-002
-0.500000000000000E-002
-0.500000000000000E-002
-0.500000000000000E-002
-0.500000000000000E-002
-0.500000000000000E-002
-0.500000000000000E-002
-0.500000000000000E-002
-0.500000000000000E-002
-0.500000000000000E-002
-0.500000000000000E-002
-0.500000000000000E-002
-0.500000000000000E-002
-0.500000000000000E-002
-0.500000000000000E-002
-0.500000000000000E-002
-0.500000000000000E-002
-0.500000000000000E-002
-0.500000000000000E-002
-0.500000000000000E-002
-0.500000000000000E-002
-0.500000000000000E-002
-0.500000000000000E-002
-0.500000000000000E-002
-0.500000000000000E-002
-0.500000000000000E-002
-0.500000000000000E-002
-0.500000000000000E-002
-0.500000000000000E-002
-0.500000000000000E-002
-0.500000000000000E-002
-0.500000000000000E-002
-0.500000000000000E-002
-0.500000000000000E-002
-0.500000000000000E-002
-0.500000000000000E-002
-0.500000000000000E-002
-0.500000000000000E-002
-0.500000000000000E-002
-0.500000000000000E-002
-0.500000000000000E-002
-0.500000000000000E-002
-0.500000000000000E-002
-0.500000000000000E-002
-0.500000000000000E-002
-0.500000000000000E-002
-0.500000000000000E-002
-0.500000000000000E-002
-0.500000000000000E-002
-0.500000000000000E-002
-0.500000000000000E-002
-0.500000000000000E-002
-0.500000000000000E-002
-0.500000000000000E-002
-0.500000000000000E-002
-0.500000000000000E-002
-0.500000000000000E-002
-0.500000000000000E-002
-0.500000000000000E-002
-0.500000000000000E-002
-0.500000000000000E-002
-0.500000000000000E-002
-0.500000000000000E-002
-0.500000000000000E-002
 0.500000000000000E-002
 0.500000000000000E-002
 0.500000000000000E-002
 0.500000000000000E-002
 0.500000000000000E-002
 0.500000000000000E-002
 0.500000000000000E-002
 0.500000000000000E-002
 0.500000000000000E-002
 0.500000000000000E-002
 0.500000000000000E-002
 0.500000000000000E-002
 0.500000000000000E-002
 0.500000000000000E-002
 0.500000000000000E-002
 0.500000000000000E-002
 0.500000000000000E-002
 0.500000000000000E-002
 0.500000000000000E-002
 0.500000000000000E-002
 0.500000000000000E-002
 0.500000000000000E-002
 0.500000000000000E-002
 0.500000000000000E-002
 0.500000000000000E-002
 0.500000000000000E-002
 0.500000000000000E-002
 0.500000000000000E-002
 0.500000000000000E-002
 0.500000000000000E-002
 0.500000000000000E-002
 0.500000000000000E-002
 0.500000000000000E-002
 0.500000000000000E-002
 0.500000000000000E-002
 0.500000000000000E-002
 0.500000000000000E-002
 0.500000000000000E-002
 0.500000000000000E-002
 0.500000000000000E-002
 0.500000000000000E-002
 0.500000000000000E-002
 0.500000000000000E-002
 0.500000000000000E-002
 0.500000000000000E-002
 0.500000000000000E-002
 0.500000000000000E-002
 0.500000000000000E-002
 0.500000000000000E-002
 0.500000000000000E-002
 0.500000000000000E-002
 0.500000000000000E-002
 0.500000000000000E-002
 0.500000000000000E-002
 0.500000000000000E-002
 0.500000000000000E-002
 0.500000000000000E-002
 0.500000000000000E-002
 0.500000000000000E-002
 0.500000000000000E-002
 0.500000000000000E-002
 0.500000000000000E-002
 0.500000000000000E-002
 0.500000000000000E-002
 0.500000000000000E-002
 0.500000000000000E-002
 0.500000000000000E-002
 0.500000000000000E-002
 0.500000000000000E-002
 0.500000000000000E-002
 0.500000000000000E-002
 0.500000000000000E-002
 0.500000000000000E-002
 0.500000000000000E-002
 0.500000000000000E-002
 0.500000000000000E-002
 0.500000000000000E-002
 0.500000000000000E-002
 0.500000000000000E-002
 0.500000000000000E-002
 0.500000000000000E-002
 0.500000000000000E-002
 0.500000000000000E-002
 0.500000000000000E-002
 0.500000000000000E-002
 0.500000000000000E-002
 0.500000000000000E-002
 0.500000000000000E-002
 0.500000000000000E-002
 0.500000000000000E-002
 0.500000000000000E-002
 0.500000000000000E-002
 0.500000000000000E-002
 0.500000000000000E-002
 0.500000000000000E-002
 0.500000000000000E-002
 0.500000000000000E-002
 0.500000000000000E-002
 0.500000000000000E-002
 0.500000000000000E-002
 0.500000000000000E-002
 0.372374828475954E+003
 0.370824908344999E+003
 0.369276255683050E+003
 0.367729711204154E+003
 0.366186109257075E+003
 0.364646275343985E+003
 0.363111023702905E+003
 0.361581154970583E+003
 0.360057453941426E+003
 0.358540687436827E+003
 0.357031602297781E+003
 0.355530923512115E+003
 0.354039352485975E+003
 0.352557565467463E+003
 0.351086212128551E+003
 0.349625914309597E+003
 0.348177264929031E+003
 0.346740827059077E+003
 0.345317133166752E+003
 0.343906684517856E+003
 0.342509950740264E+003
 0.341127369541548E+003
 0.339759346574857E+003
 0.338406255445979E+003
 0.337068437853709E+003
 0.335746203854960E+003
 0.334439832245573E+003
 0.333149571047362E+003
 0.331875638091763E+003
 0.330618221690287E+003
 0.329377481382053E+003
 0.328153548748755E+003
 0.326946528287653E+003
 0.325756498333481E+003
 0.324583512020502E+003
 0.323427598276401E+003
 0.322288762840133E+003
 0.321166989296383E+003
 0.320062240119773E+003
 0.318974457722537E+003
 0.317903565499889E+003
 0.316849468867863E+003
 0.315812056288960E+003
 0.314791200281400E+003
 0.313786758408362E+003
 0.312798574243977E+003
 0.311826478313396E+003
 0.310870289004590E+003
 0.309929813450023E+003
 0.309004848376643E+003
 0.308095180923029E+003
 0.307200589422813E+003
 0.306320844153805E+003
 0.305455708052493E+003
 0.304604937393827E+003
 0.303768282436377E+003
 0.302945488033187E+003
 0.302136294208745E+003
 0.301340436702668E+003
 0.300557647480794E+003
 0.299787655214482E+003
 0.299030185728986E+003
 0.298284962421862E+003
 0.297551706652381E+003
 0.296830138102998E+003
 0.296119975113918E+003
 0.295420934991849E+003
 0.294732734294020E+003
 0.294055089088551E+003
 0.293387715192248E+003
 0.292730328386909E+003
 0.292082644615164E+003
 0.291444380156910E+003
 0.290815251787323E+003
 0.290194976917438E+003
 0.289583273718251E+003
 0.288979861229245E+003
 0.288384459452246E+003
 0.287796789431454E+003
 0.287216573320466E+003
 0.286643534437083E+003
 0.286077397306651E+003
 0.285517887694659E+003
 0.284964732629265E+003
 0.284417660414431E+003
 0.283876400634259E+003
 0.283340684149139E+003
 0.282810243084268E+003
 0.282284810811062E+003
 0.281764121921989E+003
 0.281247912199276E+003
 0.280735918577966E+003
 0.280227879103743E+003
 0.279723532885949E+003
 0.279222620046162E+003
 0.278724881662727E+003
 0.278230059711563E+003
 0.277737897003604E+003
 0.277248137119174E+003
 0.276760524339613E+003
 0.000000000000000E+000
 0.000000000000000E+000
 0.000000000000000E+000
 0.000000000000000E+000
 0.000000000000000E+000
 0.000000000000000E+000
 0.000000000000000E+000
 0.000000000000000E+000
 0.000000000000000E+000
 0.000000000000000E+000
 0.000000000000000E+000
 0.000000000000000E+000
 0.000000000000000E+000
 0.000000000000000E+000
 0.000000000000000E+000
 0.000000000000000E+000
 0.000000000000000E+000
 0.000000000000000E+000
 0.000000000000000E+000
 0.000000000000000E+000
 0.000000000000000E+000
 0.000000000000000E+000
 0.000000000000000E+000
 0.000000000000000E+000
 0.000000000000000E+000
 0.000000000000000E+000
 0.000000000000000E+000
 0.000000000000000E+000
 0.000000000000000E+000
 0.000000000000000E+000
 0.000000000000000E+000
 0.000000000000000E+000
 0.000000000000000E+000
 0.000000000000000E+000
 0.000000000000000E+000
 0.000000000000000E+000
 0.000000000000000E+000
 0.000000000000000E+000
 0.000000000000000E+000
 0.000000000000000E+000
 0.000000000000000E+000
 0.000000000000000E+000
 0.000000000000000E+000
 0.000000000000000E+000
 0.000000000000000E+000
 0.000000000000000E+000
 0.000000000000000E+000
 0.000000000000000E+000
 0.000000000000000E+000
 0.000000000000000E+000
 0.000000000000000E+000
 0.000000000000000E+000
 0.000000000000000E+000
 0.000000000000000E+000
 0.000000000000000E+000
 0.000000000000000E+000
 0.000000000000000E+000
 0.000000000000000E+000
 0.000000000000000E+000
 0.000000000000000E+000
 0.000000000000000E+000
 0.000000000000000E+000
 0.000000000000000E+000
 0.000000000000000E+000
 0.000000000000000E+000
 0.000000000000000E+000
 0.000000000000000E+000
 0.000000000000000E+000
 0.000000000000000E+000
 0.000000000000000E+000
 0.000000000000000E+000
 0.000000000000000E+000
 0.000000000000000E+000
 0.000000000000000E+000
 0.000000000000000E+000
 0.000000000000000E+000
 0.000000000000000E+000
 0.000000000000000E+000
 0.000000000000000E+000
 0.000000000000000E+000
 0.000000000000000E+000
 0.000000000000000E+000
 0.000000000000000E+000
 0.000000000000000E+000
 0.000000000000000E+000
 0.000000000000000E+000
 0.000000000000000E+000
 0.000000000000000E+000
 0.000000000000000E+000
 0.000000000000000E+000
 0.000000000000000E+000
 0.000000000000000E+000
 0.000000000000000E+000
 0.000000000000000E+000
 0.000000000000000E+000
 0.000000000000000E+000
 0.000000000000000E+000
 0.000000000000000E+000
 0.000000000000000E+000
 0.000000000000000E+000
 ZONE  T = B1F2, I=1, J=101, K=2, DATAPACKING=BLOCK, VARLOCATION=([1-3]=NODAL,[4-5]=CELLCENTERED), SOLUTIONTIME=0.277050000000000E+005, STRANDID = 0
 0.600000000000000E+000
 0.600000000000000E+000
 0.600000000000000E+000
 0.600000000000000E+000
 0.600000000000000E+000
 0.600000000000000E+000
 0.600000000000000E+000
 0.600000000000000E+000
 0.600000000000000E+000
 0.600000000000000E+000
 0.600000000000000E+000
 0.600000000000000E+000
 0.600000000000000E+000
 0.600000000000000E+000
 0.600000000000000E+000
 0.600000000000000E+000
 0.600000000000000E+000
 0.600000000000000E+000
 0.600000000000000E+000
 0.600000000000000E+000
 0.600000000000000E+000
 0.600000000000000E+000
 0.600000000000000E+000
 0.600000000000000E+000
 0.600000000000000E+000
 0.600000000000000E+000
 0.600000000000000E+000
 0.600000000000000E+000
 0.600000000000000E+000
 0.600000000000000E+000
 0.600000000000000E+000
 0.600000000000000E+000
 0.600000000000000E+000
 0.600000000000000E+000
 0.600000000000000E+000
 0.600000000000000E+000
 0.600000000000000E+000
 0.600000000000000E+000
 0.600000000000000E+000
 0.600000000000000E+000
 0.600000000000000E+000
 0.600000000000000E+000
 0.600000000000000E+000
 0.600000000000000E+000
 0.600000000000000E+000
 0.600000000000000E+000
 0.600000000000000E+000
 0.600000000000000E+000
 0.600000000000000E+000
 0.600000000000000E+000
 0.600000000000000E+000
 0.600000000000000E+000
 0.600000000000000E+000
 0.600000000000000E+000
 0.600000000000000E+000
 0.600000000000000E+000
 0.600000000000000E+000
 0.600000000000000E+000
 0.600000000000000E+000
 0.600000000000000E+000
 0.600000000000000E+000
 0.600000000000000E+000
 0.600000000000000E+000
 0.600000000000000E+000
 0.600000000000000E+000
 0.600000000000000E+000
 0.600000000000000E+000
 0.600000000000000E+000
 0.600000000000000E+000
 0.600000000000000E+000
 0.600000000000000E+000
 0.600000000000000E+000
 0.600000000000000E+000
 0.600000000000000E+000
 0.600000000000000E+000
 0.600000000000000E+000
 0.600000000000000E+000
 0.600000000000000E+000
 0.600000000000000E+000
 0.600000000000000E+000
 0.600000000000000E+000
 0.600000000000000E+000
 0.600000000000000E+000
 0.600000000000000E+000
 0.600000000000000E+000
 0.600000000000000E+000
 0.600000000000000E+000
 0.600000000000000E+000
 0.600000000000000E+000
 0.600000000000000E+000
 0.600000000000000E+000
 0.600000000000000E+000
 0.600000000000000E+000
 0.600000000000000E+000
 0.600000000000000E+000
 0.600000000000000E+000
 0.600000000000000E+000
 0.600000000000000E+000
 0.600000000000000E+000
 0.600000000000000E+000
 0.600000000000000E+000
 0.600000000000000E+000
 0.600000000000000E+000
 0.600000000000000E+000
 0.600000000000000E+000
 0.600000000000000E+000
 0.600000000000000E+000
 0.600000000000000E+000
 0.600000000000000E+000
 0.600000000000000E+000
 0.600000000000000E+000
 0.600000000000000E+000
 0.600000000000000E+000
 0.600000000000000E+000
 0.600000000000000E+000
 0.600000000000000E+000
 0.600000000000000E+000
 0.600000000000000E+000
 0.600000000000000E+000
 0.600000000000000E+000
 0.600000000000000E+000
 0.600000000000000E+000
 0.600000000000000E+000
 0.600000000000000E+000
 0.600000000000000E+000
 0.600000000000000E+000
 0.600000000000000E+000
 0.600000000000000E+000
 0.600000000000000E+000
 0.600000000000000E+000
 0.600000000000000E+000
 0.600000000000000E+000
 0.600000000000000E+000
 0.600000000000000E+000
 0.600000000000000E+000
 0.600000000000000E+000
 0.600000000000000E+000
 0.600000000000000E+000
 0.600000000000000E+000
 0.600000000000000E+000
 0.600000000000000E+000
 0.600000000000000E+000
 0.600000000000000E+000
 0.600000000000000E+000
 0.600000000000000E+000
 0.600000000000000E+000
 0.600000000000000E+000
 0.600000000000000E+000
 0.600000000000000E+000
 0.600000000000000E+000
 0.600000000000000E+000
 0.600000000000000E+000
 0.600000000000000E+000
 0.600000000000000E+000
 0.600000000000000E+000
 0.600000000000000E+000
 0.600000000000000E+000
 0.600000000000000E+000
 0.600000000000000E+000
 0.600000000000000E+000
 0.600000000000000E+000
 0.600000000000000E+000
 0.600000000000000E+000
 0.600000000000000E+000
 0.600000000000000E+000
 0.600000000000000E+000
 0.600000000000000E+000
 0.600000000000000E+000
 0.600000000000000E+000
 0.600000000000000E+000
 0.600000000000000E+000
 0.600000000000000E+000
 0.600000000000000E+000
 0.600000000000000E+000
 0.600000000000000E+000
 0.600000000000000E+000
 0.600000000000000E+000
 0.600000000000000E+000
 0.600000000000000E+000
 0.600000000000000E+000
 0.600000000000000E+000
 0.600000000000000E+000
 0.600000000000000E+000
 0.600000000000000E+000
 0.600000000000000E+000
 0.600000000000000E+000
 0.600000000000000E+000
 0.600000000000000E+000
 0.600000000000000E+000
 0.600000000000000E+000
 0.600000000000000E+000
 0.600000000000000E+000
 0.600000000000000E+000
 0.600000000000000E+000
 0.600000000000000E+000
 0.600000000000000E+000
 0.600000000000000E+000
 0.600000000000000E+000
 0.600000000000000E+000
 0.600000000000000E+000
 0.600000000000000E+000
 0.600000000000000E+000
 0.000000000000000E+000
 0.999999999998105E-002
 0.199999999999623E-001
 0.299999999999429E-001
 0.399999999999216E-001
 0.499999999998994E-001
 0.599999999998780E-001
 0.699999999998601E-001
 0.799999999998448E-001
 0.899999999998294E-001
 0.999999999998141E-001
 0.109999999999799E+000
 0.119999999999783E+000
 0.129999999999760E+000
 0.139999999999732E+000
 0.149999999999703E+000
 0.159999999999674E+000
 0.169999999999644E+000
 0.179999999999615E+000
 0.189999999999586E+000
 0.199999999999557E+000
 0.209999999999528E+000
 0.219999999999499E+000
 0.229999999999469E+000
 0.239999999999440E+000
 0.249999999999411E+000
 0.259999999999382E+000
 0.269999999999352E+000
 0.279999999999323E+000
 0.289999999999294E+000
 0.299999999999265E+000
 0.309999999999236E+000
 0.319999999999207E+000
 0.329999999999178E+000
 0.339999999999148E+000
 0.349999999999119E+000
 0.359999999999090E+000
 0.369999999999061E+000
 0.379999999999032E+000
 0.389999999999002E+000
 0.399999999998973E+000
 0.409999999998944E+000
 0.419999999998915E+000
 0.429999999998886E+000
 0.439999999998856E+000
 0.449999999998827E+000
 0.459999999998798E+000
 0.469999999998769E+000
 0.479999999998740E+000
 0.489999999998710E+000
 0.499999999998692E+000
 0.509999999998708E+000
 0.519999999998734E+000
 0.529999999998760E+000
 0.539999999998787E+000
 0.549999999998813E+000
 0.559999999998839E+000
 0.569999999998866E+000
 0.579999999998892E+000
 0.589999999998919E+000
 0.599999999998945E+000
 0.609999999998971E+000
 0.619999999998998E+000
 0.629999999999024E+000
 0.639999999999050E+000
 0.649999999999077E+000
 0.659999999999103E+000
 0.669999999999130E+000
 0.679999999999156E+000
 0.689999999999182E+000
 0.699999999999209E+000
 0.709999999999235E+000
 0.719999999999261E+000
 0.729999999999288E+000
 0.739999999999314E+000
 0.749999999999341E+000
 0.759999999999367E+000
 0.769999999999393E+000
 0.779999999999420E+000
 0.789999999999446E+000
 0.799999999999472E+000
 0.809999999999499E+000
 0.819999999999525E+000
 0.829999999999552E+000
 0.839999999999578E+000
 0.849999999999604E+000
 0.859999999999631E+000
 0.869999999999657E+000
 0.879999999999683E+000
 0.889999999999710E+000
 0.899999999999736E+000
 0.909999999999763E+000
 0.919999999999789E+000
 0.929999999999815E+000
 0.939999999999842E+000
 0.949999999999868E+000
 0.959999999999894E+000
 0.969999999999921E+000
 0.979999999999947E+000
 0.989999999999974E+000
 0.100000000000000E+001
 0.000000000000000E+000
 0.999999999998105E-002
 0.199999999999623E-001
 0.299999999999429E-001
 0.399999999999216E-001
 0.499999999998994E-001
 0.599999999998780E-001
 0.699999999998601E-001
 0.799999999998448E-001
 0.899999999998294E-001
 0.999999999998141E-001
 0.109999999999799E+000
 0.119999999999783E+000
 0.129999999999760E+000
 0.139999999999732E+000
 0.149999999999703E+000
 0.159999999999674E+000
 0.169999999999644E+000
 0.179999999999615E+000
 0.189999999999586E+000
 0.199999999999557E+000
 0.209999999999528E+000
 0.219999999999499E+000
 0.229999999999469E+000
 0.239999999999440E+000
 0.249999999999411E+000
 0.259999999999382E+000
 0.269999999999352E+000
 0.279999999999323E+000
 0.289999999999294E+000
 0.299999999999265E+000
 0.309999999999236E+000
 0.319999999999207E+000
 0.329999999999178E+000
 0.339999999999148E+000
 0.349999999999119E+000
 0.359999999999090E+000
 0.369999999999061E+000
 0.379999999999032E+000
 0.389999999999002E+000
 0.399999999998973E+000
 0.409999999998944E+000
 0.419999999998915E+000
 0.429999999998886E+000
 0.439999999998856E+000
 0.449999999998827E+000
 0.459999999998798E+000
 0.469999999998769E+000
 0.479999999998740E+000
 0.489999999998710E+000
 0.499999999998692E+000
 0.509999999998708E+000
 0.519999999998734E+000
 0.529999999998760E+000
 0.539999999998787E+000
 0.549999999998813E+000
 0.559999999998839E+000
 0.569999999998866E+000
 0.579999999998892E+000
 0.589999999998919E+000
 0.599999999998945E+000
 0.609999999998971E+000
 0.619999999998998E+000
 0.629999999999024E+000
 0.639999999999050E+000
 0.649999999999077E+000
 0.659999999999103E+000
 0.669999999999130E+000
 0.679999999999156E+000
 0.689999999999182E+000
 0.699999999999209E+000
 0.709999999999235E+000
 0.719999999999261E+000
 0.729999999999288E+000
 0.739999999999314E+000
 0.749999999999341E+000
 0.759999999999367E+000
 0.769999999999393E+000
 0.779999999999420E+000
 0.789999999999446E+000
 0.799999999999472E+000
 0.809999999999499E+000
 0.819999999999525E+000
 0.829999999999552E+000
 0.839999999999578E+000
 0.849999999999604E+000
 0.859999999999631E+000
 0.869999999999657E+000
 0.879999999999683E+000
 0.889999999999710E+000
 0.899999999999736E+000
 0.909999999999763E+000
 0.919999999999789E+000
 0.929999999999815E+000
 0.939999999999842E+000
 0.949999999999868E+000
 0.959999999999894E+000
 0.969999999999921E+000
 0.979999999999947E+000
 0.989999999999974E+000
 0.100000000000000E+001
-0.500000000000000E-002
-0.500000000000000E-002
-0.500000000000000E-002
-0.500000000000000E-002
-0.500000000000000E-002
-0.500000000000000E-002
-0.500000000000000E-002
-0.500000000000000E-002
-0.500000000000000E-002
-0.500000000000000E-002
-0.500000000000000E-002
-0.500000000000000E-002
-0.500000000000000E-002
-0.500000000000000E-002
-0.500000000000000E-002
-0.500000000000000E-002
-0.500000000000000E-002
-0.500000000000000E-002
-0.500000000000000E-002
-0.500000000000000E-002
-0.500000000000000E-002
-0.500000000000000E-002
-0.500000000000000E-002
-0.500000000000000E-002
-0.500000000000000E-002
-0.500000000000000E-002