 VARIABLES ="x" "y" "z"  "T" "matID" "qvol" "k" "rho" "cs" "h"
 ZONE  T = Block1, I=16, J=41, K=2, DATAPACKING=BLOCK, VARLOCATION=([1-3]=NODAL,[4-10]=CELLCENTERED), SOLUTIONTIME=0.404999999997486E+000
-0.100000000000000E+001
-0.950000000000606E+000
-0.900000000000631E+000
-0.850000000000937E+000
-0.800000000000859E+000
-0.750000000000781E+000
-0.700000000000703E+000
-0.650000000000626E+000
-0.600000000000547E+000
-0.550000000000469E+000
-0.500000000000391E+000
-0.450000000000313E+000
-0.400000000000235E+000
-0.350000000000156E+000
-0.300000000000078E+000
-0.250000000000000E+000
-0.100000000000000E+001
-0.950000000000588E+000
-0.900000000000609E+000
-0.850000000000904E+000
-0.800000000000825E+000
-0.750000000000746E+000
-0.700000000000667E+000
-0.650000000000588E+000
-0.600000000000509E+000
-0.550000000000430E+000
-0.500000000000351E+000
-0.450000000000280E+000
-0.400000000000210E+000
-0.350000000000140E+000
-0.300000000000070E+000
-0.250000000000000E+000
-0.100000000000000E+001
-0.950000000000570E+000
-0.900000000000587E+000
-0.850000000000872E+000
-0.800000000000792E+000
-0.750000000000712E+000
-0.700000000000631E+000
-0.650000000000551E+000
-0.600000000000471E+000
-0.550000000000390E+000
-0.500000000000310E+000
-0.450000000000248E+000
-0.400000000000186E+000
-0.350000000000124E+000
-0.300000000000062E+000
-0.250000000000000E+000
-0.100000000000000E+001
-0.950000000000551E+000
-0.900000000000565E+000
-0.850000000000839E+000
-0.800000000000758E+000
-0.750000000000676E+000
-0.700000000000595E+000
-0.650000000000514E+000
-0.600000000000433E+000
-0.550000000000351E+000
-0.500000000000270E+000
-0.450000000000215E+000
-0.400000000000161E+000
-0.350000000000108E+000
-0.300000000000054E+000
-0.250000000000000E+000
-0.100000000000000E+001
-0.950000000000533E+000
-0.900000000000543E+000
-0.850000000000807E+000
-0.800000000000724E+000
-0.750000000000641E+000
-0.700000000000559E+000
-0.650000000000477E+000
-0.600000000000394E+000
-0.550000000000312E+000
-0.500000000000230E+000
-0.450000000000182E+000
-0.400000000000137E+000
-0.350000000000091E+000
-0.300000000000046E+000
-0.250000000000000E+000
-0.100000000000000E+001
-0.950000000000515E+000
-0.900000000000521E+000
-0.850000000000774E+000
-0.800000000000690E+000
-0.750000000000607E+000
-0.700000000000524E+000
-0.650000000000440E+000
-0.600000000000356E+000
-0.550000000000272E+000
-0.500000000000189E+000
-0.450000000000150E+000
-0.400000000000113E+000
-0.350000000000075E+000
-0.300000000000037E+000
-0.250000000000000E+000
-0.100000000000000E+001
-0.950000000000497E+000
-0.900000000000499E+000
-0.850000000000741E+000
-0.800000000000657E+000
-0.750000000000572E+000
-0.700000000000487E+000
-0.650000000000403E+000
-0.600000000000318E+000
-0.550000000000233E+000
-0.500000000000149E+000
-0.450000000000117E+000
-0.400000000000088E+000
-0.350000000000059E+000
-0.300000000000030E+000
-0.250000000000000E+000
-0.100000000000000E+001
-0.950000000000478E+000
-0.900000000000477E+000
-0.850000000000708E+000
-0.800000000000623E+000
-0.750000000000537E+000
-0.700000000000451E+000
-0.650000000000365E+000
-0.600000000000279E+000
-0.550000000000193E+000
-0.500000000000109E+000
-0.450000000000085E+000
-0.400000000000064E+000
-0.350000000000042E+000
-0.300000000000021E+000
-0.250000000000000E+000
-0.100000000000000E+001
-0.950000000000460E+000
-0.900000000000455E+000
-0.850000000000676E+000
-0.800000000000589E+000
-0.750000000000502E+000
-0.700000000000415E+000
-0.650000000000328E+000
-0.600000000000241E+000
-0.550000000000154E+000
-0.500000000000068E+000
-0.450000000000052E+000
-0.400000000000039E+000
-0.350000000000026E+000
-0.300000000000013E+000
-0.250000000000000E+000
-0.100000000000000E+001
-0.950000000000442E+000
-0.900000000000433E+000
-0.850000000000643E+000
-0.800000000000555E+000
-0.750000000000467E+000
-0.700000000000379E+000
-0.650000000000291E+000
-0.600000000000203E+000
-0.550000000000115E+000
-0.500000000000028E+000
-0.450000000000020E+000
-0.400000000000015E+000
-0.350000000000010E+000
-0.300000000000005E+000
-0.250000000000000E+000
-0.100000000000000E+001
-0.950000000000424E+000
-0.900000000000412E+000
-0.850000000000610E+000
-0.800000000000522E+000
-0.750000000000432E+000
-0.700000000000343E+000
-0.650000000000254E+000
-0.600000000000165E+000
-0.550000000000075E+000
-0.499999999999988E+000
-0.449999999999987E+000
-0.399999999999990E+000
-0.349999999999994E+000
-0.299999999999997E+000
-0.250000000000000E+000
-0.100000000000000E+001
-0.950000000000405E+000
-0.900000000000389E+000
-0.850000000000578E+000
-0.800000000000488E+000
-0.750000000000397E+000
-0.700000000000307E+000
-0.650000000000217E+000
-0.600000000000126E+000
-0.550000000000036E+000
-0.499999999999947E+000
-0.449999999999955E+000
-0.399999999999966E+000
-0.349999999999977E+000
-0.299999999999989E+000
-0.250000000000000E+000
-0.100000000000000E+001
-0.950000000000387E+000
-0.900000000000368E+000
-0.850000000000545E+000
-0.800000000000454E+000
-0.750000000000362E+000
-0.700000000000271E+000
-0.650000000000179E+000
-0.600000000000088E+000
-0.549999999999996E+000
-0.499999999999907E+000
-0.449999999999922E+000
-0.399999999999942E+000
-0.349999999999961E+000
-0.299999999999981E+000
-0.250000000000000E+000
-0.100000000000000E+001
-0.950000000000369E+000
-0.900000000000346E+000
-0.850000000000512E+000
-0.800000000000420E+000
-0.750000000000327E+000
-0.700000000000235E+000
-0.650000000000142E+000
-0.600000000000050E+000
-0.549999999999957E+000
-0.499999999999867E+000
-0.449999999999890E+000
-0.399999999999917E+000
-0.349999999999945E+000
-0.299999999999972E+000
-0.250000000000000E+000
-0.100000000000000E+001
-0.950000000000351E+000
-0.900000000000324E+000
-0.850000000000480E+000
-0.800000000000386E+000
-0.750000000000293E+000
-0.700000000000199E+000
-0.650000000000105E+000
-0.600000000000012E+000
-0.549999999999918E+000
-0.499999999999827E+000
-0.449999999999857E+000
-0.399999999999893E+000
-0.349999999999929E+000
-0.299999999999964E+000
-0.250000000000000E+000
-0.100000000000000E+001
-0.950000000000333E+000
-0.900000000000302E+000
-0.850000000000447E+000
-0.800000000000353E+000
-0.750000000000258E+000
-0.700000000000163E+000
-0.650000000000068E+000
-0.599999999999973E+000
-0.549999999999878E+000
-0.499999999999786E+000
-0.449999999999824E+000
-0.399999999999868E+000
-0.349999999999912E+000
-0.299999999999956E+000
-0.250000000000000E+000
-0.100000000000000E+001
-0.950000000000314E+000
-0.900000000000280E+000
-0.850000000000415E+000
-0.800000000000319E+000
-0.750000000000223E+000
-0.700000000000127E+000
-0.650000000000031E+000
-0.599999999999935E+000
-0.549999999999839E+000
-0.499999999999746E+000
-0.449999999999792E+000
-0.399999999999844E+000
-0.349999999999896E+000
-0.299999999999948E+000
-0.250000000000000E+000
-0.100000000000000E+001
-0.950000000000296E+000
-0.900000000000258E+000
-0.850000000000382E+000
-0.800000000000285E+000
-0.750000000000188E+000
-0.700000000000091E+000
-0.649999999999994E+000
-0.599999999999897E+000
-0.549999999999800E+000
-0.499999999999706E+000
-0.449999999999759E+000
-0.399999999999820E+000
-0.349999999999880E+000
-0.299999999999940E+000
-0.250000000000000E+000
-0.100000000000000E+001
-0.950000000000278E+000
-0.900000000000236E+000
-0.850000000000349E+000
-0.800000000000251E+000
-0.750000000000153E+000
-0.700000000000055E+000
-0.649999999999957E+000
-0.599999999999858E+000
-0.549999999999760E+000
-0.499999999999665E+000
-0.449999999999727E+000
-0.399999999999795E+000
-0.349999999999863E+000
-0.299999999999932E+000
-0.250000000000000E+000
-0.100000000000000E+001
-0.950000000000260E+000
-0.900000000000214E+000
-0.850000000000317E+000
-0.800000000000218E+000
-0.750000000000118E+000
-0.700000000000019E+000
-0.649999999999919E+000
-0.599999999999820E+000
-0.549999999999721E+000
-0.499999999999625E+000
-0.449999999999694E+000
-0.399999999999771E+000
-0.349999999999847E+000
-0.299999999999924E+000
-0.250000000000000E+000
-0.100000000000000E+001
-0.950000000000242E+000
-0.900000000000192E+000
-0.850000000000284E+000
-0.800000000000184E+000
-0.750000000000083E+000
-0.699999999999983E+000
-0.649999999999882E+000
-0.599999999999782E+000
-0.549999999999681E+000
-0.499999999999584E+000
-0.449999999999662E+000
-0.399999999999746E+000
-0.349999999999831E+000
-0.299999999999915E+000
-0.250000000000000E+000
-0.100000000000000E+001
-0.950000000000223E+000
-0.900000000000170E+000
-0.850000000000251E+000
-0.800000000000150E+000
-0.750000000000048E+000
-0.699999999999947E+000
-0.649999999999845E+000
-0.599999999999744E+000
-0.549999999999642E+000
-0.499999999999544E+000
-0.449999999999629E+000
-0.399999999999722E+000
-0.349999999999815E+000
-0.299999999999907E+000
-0.250000000000000E+000
-0.100000000000000E+001
-0.950000000000205E+000
-0.900000000000149E+000
-0.850000000000219E+000
-0.800000000000116E+000
-0.750000000000013E+000
-0.699999999999911E+000
-0.649999999999808E+000
-0.599999999999705E+000
-0.549999999999603E+000
-0.499999999999504E+000
-0.449999999999597E+000
-0.399999999999697E+000
-0.349999999999798E+000
-0.299999999999899E+000
-0.250000000000000E+000
-0.100000000000000E+001
-0.950000000000187E+000
-0.900000000000126E+000
-0.850000000000186E+000
-0.800000000000082E+000
-0.749999999999978E+000
-0.699999999999875E+000
-0.649999999999771E+000
-0.599999999999667E+000
-0.549999999999563E+000
-0.499999999999464E+000
-0.449999999999564E+000
-0.399999999999673E+000
-0.349999999999782E+000
-0.299999999999891E+000
-0.250000000000000E+000
-0.100000000000000E+001
-0.950000000000169E+000
-0.900000000000104E+000
-0.850000000000154E+000
-0.800000000000048E+000
-0.749999999999943E+000
-0.699999999999839E+000
-0.649999999999734E+000
-0.599999999999629E+000
-0.549999999999524E+000
-0.499999999999423E+000
-0.449999999999532E+000
-0.399999999999649E+000
-0.349999999999766E+000
-0.299999999999883E+000
-0.250000000000000E+000
-0.100000000000000E+001
-0.950000000000151E+000
-0.900000000000083E+000
-0.850000000000121E+000
-0.800000000000015E+000
-0.749999999999909E+000
-0.699999999999802E+000
-0.649999999999696E+000
-0.599999999999590E+000
-0.549999999999484E+000
-0.499999999999383E+000
-0.449999999999499E+000
-0.399999999999624E+000
-0.349999999999750E+000
-0.299999999999875E+000
-0.250000000000000E+000
-0.100000000000000E+001
-0.950000000000132E+000
-0.900000000000061E+000
-0.850000000000088E+000
-0.799999999999981E+000
-0.749999999999873E+000
-0.699999999999766E+000
-0.649999999999659E+000
-0.599999999999552E+000
-0.549999999999445E+000
-0.499999999999343E+000
-0.449999999999466E+000
-0.399999999999600E+000
-0.349999999999733E+000
-0.299999999999866E+000
-0.250000000000000E+000
-0.100000000000000E+001
-0.950000000000114E+000
-0.900000000000039E+000
-0.850000000000056E+000
-0.799999999999947E+000
-0.749999999999839E+000
-0.699999999999731E+000
-0.649999999999622E+000
-0.599999999999514E+000
-0.549999999999406E+000
-0.499999999999302E+000
-0.449999999999434E+000
-0.399999999999575E+000
-0.349999999999717E+000
-0.299999999999858E+000
-0.250000000000000E+000
-0.100000000000000E+001
-0.950000000000096E+000
-0.900000000000017E+000
-0.850000000000023E+000
-0.799999999999913E+000
-0.749999999999804E+000
-0.699999999999694E+000
-0.649999999999585E+000
-0.599999999999476E+000
-0.549999999999366E+000
-0.499999999999262E+000
-0.449999999999401E+000
-0.399999999999551E+000
-0.349999999999701E+000
-0.299999999999850E+000
-0.250000000000000E+000
-0.100000000000000E+001
-0.950000000000078E+000
-0.899999999999995E+000
-0.849999999999990E+000
-0.799999999999880E+000
-0.749999999999769E+000
-0.699999999999658E+000
-0.649999999999548E+000
-0.599999999999437E+000
-0.549999999999327E+000
-0.499999999999222E+000
-0.449999999999369E+000
-0.399999999999527E+000
-0.349999999999685E+000
-0.299999999999842E+000
-0.250000000000000E+000
-0.100000000000000E+001
-0.950000000000060E+000
-0.899999999999973E+000
-0.849999999999958E+000
-0.799999999999846E+000
-0.749999999999734E+000
-0.699999999999622E+000
-0.649999999999511E+000
-0.599999999999399E+000
-0.549999999999288E+000
-0.499999999999181E+000
-0.449999999999336E+000
-0.399999999999502E+000
-0.349999999999668E+000
-0.299999999999834E+000
-0.250000000000000E+000
-0.100000000000000E+001
-0.950000000000041E+000
-0.899999999999952E+000
-0.849999999999925E+000
-0.799999999999812E+000
-0.749999999999699E+000
-0.699999999999586E+000
-0.649999999999474E+000
-0.599999999999361E+000
-0.549999999999248E+000
-0.499999999999141E+000
-0.449999999999304E+000
-0.399999999999478E+000
-0.349999999999652E+000
-0.299999999999826E+000
-0.250000000000000E+000
-0.100000000000000E+001
-0.950000000000023E+000
-0.899999999999930E+000
-0.849999999999892E+000
-0.799999999999778E+000
-0.749999999999664E+000
-0.699999999999550E+000
-0.649999999999436E+000
-0.599999999999322E+000
-0.549999999999209E+000
-0.499999999999101E+000
-0.449999999999271E+000
-0.399999999999453E+000
-0.349999999999636E+000
-0.299999999999818E+000
-0.250000000000000E+000
-0.100000000000000E+001
-0.950000000000005E+000
-0.899999999999908E+000
-0.849999999999860E+000
-0.799999999999745E+000
-0.749999999999630E+000
-0.699999999999514E+000
-0.649999999999399E+000
-0.599999999999284E+000
-0.549999999999169E+000
-0.499999999999060E+000
-0.449999999999239E+000
-0.399999999999429E+000
-0.349999999999619E+000
-0.299999999999810E+000
-0.250000000000000E+000
-0.100000000000000E+001
-0.949999999999986E+000
-0.899999999999886E+000
-0.849999999999827E+000
-0.799999999999711E+000
-0.749999999999594E+000
-0.699999999999478E+000
-0.649999999999362E+000
-0.599999999999246E+000
-0.549999999999130E+000
-0.499999999999020E+000
-0.449999999999206E+000
-0.399999999999404E+000
-0.349999999999603E+000
-0.299999999999801E+000
-0.250000000000000E+000
-0.100000000000000E+001
-0.949999999999969E+000
-0.899999999999864E+000
-0.849999999999794E+000
-0.799999999999677E+000
-0.749999999999560E+000
-0.699999999999442E+000
-0.649999999999325E+000
-0.599999999999208E+000
-0.549999999999091E+000
-0.499999999998980E+000
-0.449999999999174E+000
-0.399999999999380E+000
-0.349999999999587E+000
-0.299999999999793E+000
-0.250000000000000E+000
-0.100000000000000E+001
-0.949999999999950E+000
-0.899999999999842E+000
-0.849999999999762E+000
-0.799999999999643E+000
-0.749999999999525E+000
-0.699999999999406E+000
-0.649999999999288E+000
-0.599999999999169E+000
-0.549999999999051E+000
-0.499999999998939E+000
-0.449999999999141E+000
-0.399999999999356E+000
-0.349999999999571E+000
-0.299999999999785E+000
-0.250000000000000E+000
-0.100000000000000E+001
-0.949999999999932E+000
-0.899999999999820E+000
-0.849999999999729E+000
-0.799999999999609E+000
-0.749999999999490E+000
-0.699999999999370E+000
-0.649999999999251E+000
-0.599999999999131E+000
-0.549999999999012E+000
-0.499999999998899E+000
-0.449999999999108E+000
-0.399999999999331E+000
-0.349999999999554E+000
-0.299999999999777E+000
-0.250000000000000E+000
-0.100000000000000E+001
-0.949999999999914E+000
-0.899999999999798E+000
-0.849999999999696E+000
-0.799999999999576E+000
-0.749999999999455E+000
-0.699999999999334E+000
-0.649999999999213E+000
-0.599999999999093E+000
-0.549999999998972E+000
-0.499999999998859E+000
-0.449999999999076E+000
-0.399999999999307E+000
-0.349999999999538E+000
-0.299999999999769E+000
-0.250000000000000E+000
-0.100000000000000E+001
-0.949999999999895E+000
-0.899999999999776E+000
-0.849999999999664E+000
-0.799999999999542E+000
-0.749999999999420E+000
-0.699999999999298E+000
-0.649999999999176E+000
-0.599999999999054E+000
-0.549999999998933E+000
-0.499999999998818E+000
-0.449999999999043E+000
-0.399999999999282E+000
-0.349999999999522E+000
-0.299999999999761E+000
-0.250000000000000E+000
-0.100000000000000E+001
-0.949999999999877E+000
-0.899999999999754E+000
-0.849999999999631E+000
-0.799999999999508E+000
-0.749999999999385E+000
-0.699999999999262E+000
-0.649999999999139E+000
-0.599999999999016E+000
-0.549999999998894E+000
-0.499999999998778E+000
-0.449999999999011E+000
-0.399999999999258E+000
-0.349999999999505E+000
-0.299999999999753E+000
-0.250000000000000E+000
-0.100000000000000E+001
-0.950000000000606E+000
-0.900000000000631E+000
-0.850000000000937E+000
-0.800000000000859E+000
-0.750000000000781E+000
-0.700000000000703E+000
-0.650000000000626E+000
-0.600000000000547E+000
-0.550000000000469E+000
-0.500000000000391E+000
-0.450000000000313E+000
-0.400000000000235E+000
-0.350000000000156E+000
-0.300000000000078E+000
-0.250000000000000E+000
-0.100000000000000E+001
-0.950000000000588E+000
-0.900000000000609E+000
-0.850000000000904E+000
-0.800000000000825E+000
-0.750000000000746E+000
-0.700000000000667E+000
-0.650000000000588E+000
-0.600000000000509E+000
-0.550000000000430E+000
-0.500000000000351E+000
-0.450000000000280E+000
-0.400000000000210E+000
-0.350000000000140E+000
-0.300000000000070E+000
-0.250000000000000E+000
-0.100000000000000E+001
-0.950000000000570E+000
-0.900000000000587E+000
-0.850000000000872E+000
-0.800000000000792E+000
-0.750000000000712E+000
-0.700000000000631E+000
-0.650000000000551E+000
-0.600000000000471E+000
-0.550000000000390E+000
-0.500000000000310E+000
-0.450000000000248E+000
-0.400000000000186E+000
-0.350000000000124E+000
-0.300000000000062E+000
-0.250000000000000E+000
-0.100000000000000E+001
-0.950000000000551E+000
-0.900000000000565E+000
-0.850000000000839E+000
-0.800000000000758E+000
-0.750000000000676E+000
-0.700000000000595E+000
-0.650000000000514E+000
-0.600000000000433E+000
-0.550000000000351E+000
-0.500000000000270E+000
-0.450000000000215E+000
-0.400000000000161E+000
-0.350000000000108E+000
-0.300000000000054E+000
-0.250000000000000E+000
-0.100000000000000E+001
-0.950000000000533E+000
-0.900000000000543E+000
-0.850000000000807E+000
-0.800000000000724E+000
-0.750000000000641E+000
-0.700000000000559E+000
-0.650000000000477E+000
-0.600000000000394E+000
-0.550000000000312E+000
-0.500000000000230E+000
-0.450000000000182E+000
-0.400000000000137E+000
-0.350000000000091E+000
-0.300000000000046E+000
-0.250000000000000E+000
-0.100000000000000E+001
-0.950000000000515E+000
-0.900000000000521E+000
-0.850000000000774E+000
-0.800000000000690E+000
-0.750000000000607E+000
-0.700000000000524E+000
-0.650000000000440E+000
-0.600000000000356E+000
-0.550000000000272E+000
-0.500000000000189E+000
-0.450000000000150E+000
-0.400000000000113E+000
-0.350000000000075E+000
-0.300000000000037E+000
-0.250000000000000E+000
-0.100000000000000E+001
-0.950000000000497E+000
-0.900000000000499E+000
-0.850000000000741E+000
-0.800000000000657E+000
-0.750000000000572E+000
-0.700000000000487E+000
-0.650000000000403E+000
-0.600000000000318E+000
-0.550000000000233E+000
-0.500000000000149E+000
-0.450000000000117E+000
-0.400000000000088E+000
-0.350000000000059E+000
-0.300000000000030E+000
-0.250000000000000E+000
-0.100000000000000E+001
-0.950000000000478E+000
-0.900000000000477E+000
-0.850000000000708E+000
-0.800000000000623E+000
-0.750000000000537E+000
-0.700000000000451E+000
-0.650000000000365E+000
-0.600000000000279E+000
-0.550000000000193E+000
-0.500000000000109E+000
-0.450000000000085E+000
-0.400000000000064E+000
-0.350000000000042E+000
-0.300000000000021E+000
-0.250000000000000E+000
-0.100000000000000E+001
-0.950000000000460E+000
-0.900000000000455E+000
-0.850000000000676E+000
-0.800000000000589E+000
-0.750000000000502E+000
-0.700000000000415E+000
-0.650000000000328E+000
-0.600000000000241E+000
-0.550000000000154E+000
-0.500000000000068E+000
-0.450000000000052E+000
-0.400000000000039E+000
-0.350000000000026E+000
-0.300000000000013E+000
-0.250000000000000E+000
-0.100000000000000E+001
-0.950000000000442E+000
-0.900000000000433E+000
-0.850000000000643E+000
-0.800000000000555E+000
-0.750000000000467E+000
-0.700000000000379E+000
-0.650000000000291E+000
-0.600000000000203E+000
-0.550000000000115E+000
-0.500000000000028E+000
-0.450000000000020E+000
-0.400000000000015E+000
-0.350000000000010E+000
-0.300000000000005E+000
-0.250000000000000E+000
-0.100000000000000E+001
-0.950000000000424E+000
-0.900000000000412E+000
-0.850000000000610E+000
-0.800000000000522E+000
-0.750000000000432E+000
-0.700000000000343E+000
-0.650000000000254E+000
-0.600000000000165E+000
-0.550000000000075E+000
-0.499999999999988E+000
-0.449999999999987E+000
-0.399999999999990E+000
-0.349999999999994E+000
-0.299999999999997E+000
-0.250000000000000E+000
-0.100000000000000E+001
-0.950000000000405E+000
-0.900000000000389E+000
-0.850000000000578E+000
-0.800000000000488E+000
-0.750000000000397E+000
-0.700000000000307E+000
-0.650000000000217E+000
-0.600000000000126E+000
-0.550000000000036E+000
-0.499999999999947E+000
-0.449999999999955E+000
-0.399999999999966E+000
-0.349999999999977E+000
-0.299999999999989E+000
-0.250000000000000E+000
-0.100000000000000E+001
-0.950000000000387E+000
-0.900000000000368E+000
-0.850000000000545E+000
-0.800000000000454E+000
-0.750000000000362E+000
-0.700000000000271E+000
-0.650000000000179E+000
-0.600000000000088E+000
-0.549999999999996E+000
-0.499999999999907E+000
-0.449999999999922E+000
-0.399999999999942E+000
-0.349999999999961E+000
-0.299999999999981E+000
-0.250000000000000E+000
-0.100000000000000E+001
-0.950000000000369E+000
-0.900000000000346E+000
-0.850000000000512E+000
-0.800000000000420E+000
-0.750000000000327E+000
-0.700000000000235E+000
-0.650000000000142E+000
-0.600000000000050E+000
-0.549999999999957E+000
-0.499999999999867E+000
-0.449999999999890E+000
-0.399999999999917E+000
-0.349999999999945E+000
-0.299999999999972E+000
-0.250000000000000E+000
-0.100000000000000E+001
-0.950000000000351E+000
-0.900000000000324E+000
-0.850000000000480E+000
-0.800000000000386E+000
-0.750000000000293E+000
-0.700000000000199E+000
-0.650000000000105E+000
-0.600000000000012E+000
-0.549999999999918E+000
-0.499999999999827E+000
-0.449999999999857E+000
-0.399999999999893E+000
-0.349999999999929E+000
-0.299999999999964E+000
-0.250000000000000E+000
-0.100000000000000E+001
-0.950000000000333E+000
-0.900000000000302E+000
-0.850000000000447E+000
-0.800000000000353E+000
-0.750000000000258E+000
-0.700000000000163E+000
-0.650000000000068E+000
-0.599999999999973E+000
-0.549999999999878E+000
-0.499999999999786E+000
-0.449999999999824E+000
-0.399999999999868E+000
-0.349999999999912E+000
-0.299999999999956E+000
-0.250000000000000E+000
-0.100000000000000E+001
-0.950000000000314E+000
-0.900000000000280E+000
-0.850000000000415E+000
-0.800000000000319E+000
-0.750000000000223E+000
-0.700000000000127E+000
-0.650000000000031E+000
-0.599999999999935E+000
-0.549999999999839E+000
-0.499999999999746E+000
-0.449999999999792E+000
-0.399999999999844E+000
-0.349999999999896E+000
-0.299999999999948E+000
-0.250000000000000E+000
-0.100000000000000E+001
-0.950000000000296E+000
-0.900000000000258E+000
-0.850000000000382E+000
-0.800000000000285E+000
-0.750000000000188E+000
-0.700000000000091E+000
-0.649999999999994E+000
-0.599999999999897E+000
-0.549999999999800E+000
-0.499999999999706E+000
-0.449999999999759E+000
-0.399999999999820E+000
-0.349999999999880E+000
-0.299999999999940E+000
-0.250000000000000E+000
-0.100000000000000E+001
-0.950000000000278E+000
-0.900000000000236E+000
-0.850000000000349E+000
-0.800000000000251E+000
-0.750000000000153E+000
-0.700000000000055E+000
-0.649999999999957E+000
-0.599999999999858E+000
-0.549999999999760E+000
-0.499999999999665E+000
-0.449999999999727E+000
-0.399999999999795E+000
-0.349999999999863E+000
-0.299999999999932E+000
-0.250000000000000E+000
-0.100000000000000E+001
-0.950000000000260E+000
-0.900000000000214E+000
-0.850000000000317E+000
-0.800000000000218E+000
-0.750000000000118E+000
-0.700000000000019E+000
-0.649999999999919E+000
-0.599999999999820E+000
-0.549999999999721E+000
-0.499999999999625E+000
-0.449999999999694E+000
-0.399999999999771E+000
-0.349999999999847E+000
-0.299999999999924E+000
-0.250000000000000E+000
-0.100000000000000E+001
-0.950000000000242E+000
-0.900000000000192E+000
-0.850000000000284E+000
-0.800000000000184E+000
-0.750000000000083E+000
-0.699999999999983E+000
-0.649999999999882E+000
-0.599999999999782E+000
-0.549999999999681E+000
-0.499999999999584E+000
-0.449999999999662E+000
-0.399999999999746E+000
-0.349999999999831E+000
-0.299999999999915E+000
-0.250000000000000E+000
-0.100000000000000E+001
-0.950000000000223E+000
-0.900000000000170E+000
-0.850000000000251E+000
-0.800000000000150E+000
-0.750000000000048E+000
-0.699999999999947E+000
-0.649999999999845E+000
-0.599999999999744E+000
-0.549999999999642E+000
-0.499999999999544E+000
-0.449999999999629E+000
-0.399999999999722E+000
-0.349999999999815E+000
-0.299999999999907E+000
-0.250000000000000E+000
-0.100000000000000E+001
-0.950000000000205E+000
-0.900000000000149E+000
-0.850000000000219E+000
-0.800000000000116E+000
-0.750000000000013E+000
-0.699999999999911E+000
-0.649999999999808E+000
-0.599999999999705E+000
-0.549999999999603E+000
-0.499999999999504E+000
-0.449999999999597E+000
-0.399999999999697E+000
-0.349999999999798E+000
-0.299999999999899E+000
-0.250000000000000E+000
-0.100000000000000E+001
-0.950000000000187E+000
-0.900000000000126E+000
-0.850000000000186E+000
-0.800000000000082E+000
-0.749999999999978E+000
-0.699999999999875E+000
-0.649999999999771E+000
-0.599999999999667E+000
-0.549999999999563E+000
-0.499999999999464E+000
-0.449999999999564E+000
-0.399999999999673E+000
-0.349999999999782E+000
-0.299999999999891E+000
-0.250000000000000E+000
-0.100000000000000E+001
-0.950000000000169E+000
-0.900000000000104E+000
-0.850000000000154E+000
-0.800000000000048E+000
-0.749999999999943E+000
-0.699999999999839E+000
-0.649999999999734E+000
-0.599999999999629E+000
-0.549999999999524E+000
-0.499999999999423E+000
-0.449999999999532E+000
-0.399999999999649E+000
-0.349999999999766E+000
-0.299999999999883E+000
-0.250000000000000E+000
-0.100000000000000E+001
-0.950000000000151E+000
-0.900000000000083E+000
-0.850000000000121E+000
-0.800000000000015E+000
-0.749999999999909E+000
-0.699999999999802E+000
-0.649999999999696E+000
-0.599999999999590E+000
-0.549999999999484E+000
-0.499999999999383E+000
-0.449999999999499E+000
-0.399999999999624E+000
-0.349999999999750E+000
-0.299999999999875E+000
-0.250000000000000E+000
-0.100000000000000E+001
-0.950000000000132E+000
-0.900000000000061E+000
-0.850000000000088E+000
-0.799999999999981E+000
-0.749999999999873E+000
-0.699999999999766E+000
-0.649999999999659E+000
-0.599999999999552E+000
-0.549999999999445E+000
-0.499999999999343E+000
-0.449999999999466E+000
-0.399999999999600E+000
-0.349999999999733E+000
-0.299999999999866E+000
-0.250000000000000E+000
-0.100000000000000E+001
-0.950000000000114E+000
-0.900000000000039E+000
-0.850000000000056E+000
-0.799999999999947E+000
-0.749999999999839E+000
-0.699999999999731E+000
-0.649999999999622E+000
-0.599999999999514E+000
-0.549999999999406E+000
-0.499999999999302E+000
-0.449999999999434E+000
-0.399999999999575E+000
-0.349999999999717E+000
-0.299999999999858E+000
-0.250000000000000E+000
-0.100000000000000E+001
-0.950000000000096E+000
-0.900000000000017E+000
-0.850000000000023E+000
-0.799999999999913E+000
-0.749999999999804E+000
-0.699999999999694E+000
-0.649999999999585E+000
-0.599999999999476E+000
-0.549999999999366E+000
-0.499999999999262E+000
-0.449999999999401E+000
-0.399999999999551E+000
-0.349999999999701E+000
-0.299999999999850E+000
-0.250000000000000E+000
-0.100000000000000E+001
-0.950000000000078E+000
-0.899999999999995E+000
-0.849999999999990E+000
-0.799999999999880E+000
-0.749999999999769E+000
-0.699999999999658E+000
-0.649999999999548E+000
-0.599999999999437E+000
-0.549999999999327E+000
-0.499999999999222E+000
-0.449999999999369E+000
-0.399999999999527E+000
-0.349999999999685E+000
-0.299999999999842E+000
-0.250000000000000E+000
-0.100000000000000E+001
-0.950000000000060E+000
-0.899999999999973E+000
-0.849999999999958E+000
-0.799999999999846E+000
-0.749999999999734E+000
-0.699999999999622E+000
-0.649999999999511E+000
-0.599999999999399E+000
-0.549999999999288E+000
-0.499999999999181E+000
-0.449999999999336E+000
-0.399999999999502E+000
-0.349999999999668E+000
-0.299999999999834E+000
-0.250000000000000E+000
-0.100000000000000E+001
-0.950000000000041E+000
-0.899999999999952E+000
-0.849999999999925E+000
-0.799999999999812E+000
-0.749999999999699E+000
-0.699999999999586E+000
-0.649999999999474E+000
-0.599999999999361E+000
-0.549999999999248E+000
-0.499999999999141E+000
-0.449999999999304E+000
-0.399999999999478E+000
-0.349999999999652E+000
-0.299999999999826E+000
-0.250000000000000E+000
-0.100000000000000E+001
-0.950000000000023E+000
-0.899999999999930E+000
-0.849999999999892E+000
-0.799999999999778E+000
-0.749999999999664E+000
-0.699999999999550E+000
-0.649999999999436E+000
-0.599999999999322E+000
-0.549999999999209E+000
-0.499999999999101E+000
-0.449999999999271E+000
-0.399999999999453E+000
-0.349999999999636E+000
-0.299999999999818E+000
-0.250000000000000E+000
-0.100000000000000E+001
-0.950000000000005E+000
-0.899999999999908E+000
-0.849999999999860E+000
-0.799999999999745E+000
-0.749999999999630E+000
-0.699999999999514E+000
-0.649999999999399E+000
-0.599999999999284E+000
-0.549999999999169E+000
-0.499999999999060E+000
-0.449999999999239E+000
-0.399999999999429E+000
-0.349999999999619E+000
-0.299999999999810E+000
-0.250000000000000E+000
-0.100000000000000E+001
-0.949999999999986E+000
-0.899999999999886E+000
-0.849999999999827E+000
-0.799999999999711E+000
-0.749999999999594E+000
-0.699999999999478E+000
-0.649999999999362E+000
-0.599999999999246E+000
-0.549999999999130E+000
-0.499999999999020E+000
-0.449999999999206E+000
-0.399999999999404E+000
-0.349999999999603E+000
-0.299999999999801E+000
-0.250000000000000E+000
-0.100000000000000E+001
-0.949999999999969E+000
-0.899999999999864E+000
-0.849999999999794E+000
-0.799999999999677E+000
-0.749999999999560E+000
-0.699999999999442E+000
-0.649999999999325E+000
-0.599999999999208E+000
-0.549999999999091E+000
-0.499999999998980E+000
-0.449999999999174E+000
-0.399999999999380E+000
-0.349999999999587E+000
-0.299999999999793E+000
-0.250000000000000E+000
-0.100000000000000E+001
-0.949999999999950E+000
-0.899999999999842E+000
-0.849999999999762E+000
-0.799999999999643E+000
-0.749999999999525E+000
-0.699999999999406E+000
-0.649999999999288E+000
-0.599999999999169E+000