 VARIABLES ="x" "y" "z"  "T" "matID" "qvol" "k" "rho" "cs" "h"
 ZONE  T = Block1, I=101, J=11, K=2, DATAPACKING=BLOCK, VARLOCATION=([1-3]=NODAL,[4-10]=CELLCENTERED), SOLUTIONTIME=0.902040000000000E+005, STRANDID = 0
 0.000000000000000E+000
 0.499999999999053E-002
 0.999999999998113E-002
 0.149999999999714E-001
 0.199999999999608E-001
 0.249999999999497E-001
 0.299999999999390E-001
 0.349999999999301E-001
 0.399999999999224E-001
 0.449999999999147E-001
 0.499999999999071E-001
 0.549999999998994E-001
 0.599999999998913E-001
 0.649999999998801E-001
 0.699999999998660E-001
 0.749999999998514E-001
 0.799999999998368E-001
 0.849999999998222E-001
 0.899999999998076E-001
 0.949999999997931E-001
 0.999999999997784E-001
 0.104999999999764E+000
 0.109999999999749E+000
 0.114999999999735E+000
 0.119999999999720E+000
 0.124999999999705E+000
 0.129999999999691E+000
 0.134999999999676E+000
 0.139999999999662E+000
 0.144999999999647E+000
 0.149999999999633E+000
 0.154999999999618E+000
 0.159999999999603E+000
 0.164999999999589E+000
 0.169999999999574E+000
 0.174999999999560E+000
 0.179999999999545E+000
 0.184999999999530E+000
 0.189999999999516E+000
 0.194999999999501E+000
 0.199999999999487E+000
 0.204999999999472E+000
 0.209999999999457E+000
 0.214999999999443E+000
 0.219999999999428E+000
 0.224999999999414E+000
 0.229999999999399E+000
 0.234999999999384E+000
 0.239999999999370E+000
 0.244999999999355E+000
 0.249999999999346E+000
 0.254999999999354E+000
 0.259999999999367E+000
 0.264999999999380E+000
 0.269999999999393E+000
 0.274999999999406E+000
 0.279999999999420E+000
 0.284999999999433E+000
 0.289999999999446E+000
 0.294999999999459E+000
 0.299999999999473E+000
 0.304999999999486E+000
 0.309999999999499E+000
 0.314999999999512E+000
 0.319999999999525E+000
 0.324999999999538E+000
 0.329999999999552E+000
 0.334999999999565E+000
 0.339999999999578E+000
 0.344999999999591E+000
 0.349999999999604E+000
 0.354999999999618E+000
 0.359999999999631E+000
 0.364999999999644E+000
 0.369999999999657E+000
 0.374999999999670E+000
 0.379999999999683E+000
 0.384999999999697E+000
 0.389999999999710E+000
 0.394999999999723E+000
 0.399999999999736E+000
 0.404999999999749E+000
 0.409999999999763E+000
 0.414999999999776E+000
 0.419999999999789E+000
 0.424999999999802E+000
 0.429999999999815E+000
 0.434999999999829E+000
 0.439999999999842E+000
 0.444999999999855E+000
 0.449999999999868E+000
 0.454999999999881E+000
 0.459999999999894E+000
 0.464999999999908E+000
 0.469999999999921E+000
 0.474999999999934E+000
 0.479999999999947E+000
 0.484999999999960E+000
 0.489999999999974E+000
 0.494999999999987E+000
 0.500000000000000E+000
 0.000000000000000E+000
 0.499999999999355E-002
 0.999999999998718E-002
 0.149999999999805E-001
 0.199999999999731E-001
 0.249999999999651E-001
 0.299999999999576E-001
 0.349999999999516E-001
 0.399999999999468E-001
 0.449999999999420E-001
 0.499999999999372E-001
 0.549999999999324E-001
 0.599999999999271E-001
 0.649999999999192E-001
 0.699999999999085E-001
 0.749999999998975E-001
 0.799999999998864E-001
 0.849999999998754E-001
 0.899999999998644E-001
 0.949999999998533E-001
 0.999999999998422E-001
 0.104999999999831E+000
 0.109999999999820E+000
 0.114999999999809E+000
 0.119999999999798E+000
 0.124999999999787E+000
 0.129999999999776E+000
 0.134999999999765E+000
 0.139999999999754E+000
 0.144999999999743E+000
 0.149999999999732E+000
 0.154999999999721E+000
 0.159999999999710E+000
 0.164999999999698E+000
 0.169999999999688E+000
 0.174999999999676E+000
 0.179999999999665E+000
 0.184999999999654E+000
 0.189999999999643E+000
 0.194999999999632E+000
 0.199999999999621E+000
 0.204999999999610E+000
 0.209999999999599E+000
 0.214999999999588E+000
 0.219999999999577E+000
 0.224999999999566E+000
 0.229999999999555E+000
 0.234999999999544E+000
 0.239999999999533E+000
 0.244999999999522E+000
 0.249999999999514E+000
 0.254999999999519E+000
 0.259999999999527E+000
 0.264999999999536E+000
 0.269999999999544E+000
 0.274999999999553E+000
 0.279999999999561E+000
 0.284999999999569E+000
 0.289999999999578E+000
 0.294999999999586E+000
 0.299999999999595E+000
 0.304999999999603E+000
 0.309999999999611E+000
 0.314999999999620E+000
 0.319999999999628E+000
 0.324999999999637E+000
 0.329999999999645E+000
 0.334999999999654E+000
 0.339999999999662E+000
 0.344999999999670E+000
 0.349999999999679E+000
 0.354999999999687E+000
 0.359999999999695E+000
 0.364999999999704E+000
 0.369999999999712E+000
 0.374999999999721E+000
 0.379999999999729E+000
 0.384999999999737E+000
 0.389999999999746E+000
 0.394999999999754E+000
 0.399999999999762E+000
 0.404999999999771E+000
 0.409999999999779E+000
 0.414999999999788E+000
 0.419999999999796E+000
 0.424999999999805E+000
 0.429999999999813E+000
 0.434999999999822E+000
 0.439999999999833E+000
 0.444999999999847E+000
 0.449999999999861E+000
 0.454999999999874E+000
 0.459999999999888E+000
 0.464999999999902E+000
 0.469999999999916E+000
 0.474999999999930E+000
 0.479999999999944E+000
 0.484999999999958E+000
 0.489999999999972E+000
 0.494999999999986E+000
 0.500000000000000E+000
 0.000000000000000E+000
 0.499999999999659E-002
 0.999999999999322E-002
 0.149999999999896E-001
 0.199999999999853E-001
 0.249999999999806E-001
 0.299999999999762E-001
 0.349999999999732E-001
 0.399999999999712E-001
 0.449999999999693E-001
 0.499999999999673E-001
 0.549999999999653E-001
 0.599999999999630E-001
 0.649999999999582E-001
 0.699999999999511E-001
 0.749999999999436E-001
 0.799999999999361E-001
 0.849999999999286E-001
 0.899999999999210E-001
 0.949999999999135E-001
 0.999999999999060E-001
 0.104999999999898E+000
 0.109999999999891E+000
 0.114999999999884E+000
 0.119999999999876E+000
 0.124999999999868E+000
 0.129999999999861E+000
 0.134999999999853E+000
 0.139999999999846E+000
 0.144999999999838E+000
 0.149999999999831E+000
 0.154999999999823E+000
 0.159999999999816E+000
 0.164999999999808E+000
 0.169999999999801E+000
 0.174999999999793E+000
 0.179999999999786E+000
 0.184999999999778E+000
 0.189999999999771E+000
 0.194999999999763E+000
 0.199999999999756E+000
 0.204999999999748E+000
 0.209999999999741E+000
 0.214999999999733E+000
 0.219999999999726E+000
 0.224999999999718E+000
 0.229999999999711E+000
 0.234999999999703E+000
 0.239999999999696E+000
 0.244999999999688E+000
 0.249999999999683E+000
 0.254999999999684E+000
 0.259999999999688E+000
 0.264999999999691E+000
 0.269999999999695E+000
 0.274999999999699E+000
 0.279999999999702E+000
 0.284999999999706E+000
 0.289999999999709E+000
 0.294999999999713E+000
 0.299999999999717E+000
 0.304999999999720E+000
 0.309999999999724E+000
 0.314999999999728E+000
 0.319999999999731E+000
 0.324999999999735E+000
 0.329999999999738E+000
 0.334999999999742E+000
 0.339999999999746E+000
 0.344999999999749E+000
 0.349999999999753E+000
 0.354999999999757E+000
 0.359999999999760E+000
 0.364999999999764E+000
 0.369999999999767E+000
 0.374999999999771E+000
 0.379999999999775E+000
 0.384999999999778E+000
 0.389999999999782E+000
 0.394999999999785E+000
 0.399999999999789E+000
 0.404999999999793E+000
 0.409999999999796E+000
 0.414999999999800E+000
 0.419999999999803E+000
 0.424999999999807E+000
 0.429999999999811E+000
 0.434999999999815E+000
 0.439999999999824E+000
 0.444999999999838E+000
 0.449999999999853E+000
 0.454999999999868E+000
 0.459999999999882E+000
 0.464999999999897E+000
 0.469999999999912E+000
 0.474999999999926E+000
 0.479999999999941E+000
 0.484999999999956E+000
 0.489999999999971E+000
 0.494999999999985E+000
 0.500000000000000E+000
 0.000000000000000E+000
 0.499999999999961E-002
 0.999999999999927E-002
 0.149999999999987E-001
 0.199999999999975E-001
 0.249999999999960E-001
 0.299999999999948E-001
 0.349999999999947E-001
 0.399999999999956E-001
 0.449999999999965E-001
 0.499999999999974E-001
 0.549999999999983E-001
 0.599999999999988E-001
 0.649999999999973E-001
 0.699999999999936E-001
 0.749999999999896E-001
 0.799999999999857E-001
 0.849999999999817E-001
 0.899999999999777E-001
 0.949999999999738E-001
 0.999999999999698E-001
 0.104999999999966E+000
 0.109999999999962E+000
 0.114999999999958E+000
 0.119999999999954E+000
 0.124999999999950E+000
 0.129999999999946E+000
 0.134999999999942E+000
 0.139999999999938E+000
 0.144999999999934E+000
 0.149999999999930E+000
 0.154999999999926E+000
 0.159999999999922E+000
 0.164999999999918E+000
 0.169999999999914E+000
 0.174999999999910E+000
 0.179999999999906E+000
 0.184999999999902E+000
 0.189999999999898E+000
 0.194999999999894E+000
 0.199999999999890E+000
 0.204999999999886E+000
 0.209999999999882E+000
 0.214999999999878E+000
 0.219999999999874E+000
 0.224999999999870E+000
 0.229999999999867E+000
 0.234999999999863E+000
 0.239999999999858E+000
 0.244999999999855E+000
 0.249999999999851E+000
 0.254999999999850E+000
 0.259999999999848E+000
 0.264999999999847E+000
 0.269999999999846E+000
 0.274999999999845E+000
 0.279999999999844E+000
 0.284999999999842E+000
 0.289999999999841E+000
 0.294999999999840E+000
 0.299999999999839E+000
 0.304999999999838E+000
 0.309999999999837E+000
 0.314999999999835E+000
 0.319999999999834E+000
 0.324999999999833E+000
 0.329999999999832E+000
 0.334999999999831E+000
 0.339999999999829E+000
 0.344999999999828E+000
 0.349999999999827E+000
 0.354999999999826E+000
 0.359999999999825E+000
 0.364999999999824E+000
 0.369999999999823E+000
 0.374999999999821E+000
 0.379999999999820E+000
 0.384999999999819E+000
 0.389999999999818E+000
 0.394999999999817E+000
 0.399999999999815E+000
 0.404999999999814E+000
 0.409999999999813E+000
 0.414999999999812E+000
 0.419999999999811E+000
 0.424999999999809E+000
 0.429999999999808E+000
 0.434999999999808E+000
 0.439999999999815E+000
 0.444999999999830E+000
 0.449999999999845E+000
 0.454999999999861E+000
 0.459999999999876E+000
 0.464999999999892E+000
 0.469999999999907E+000
 0.474999999999923E+000
 0.479999999999938E+000
 0.484999999999954E+000
 0.489999999999969E+000
 0.494999999999984E+000
 0.500000000000000E+000
 0.000000000000000E+000
 0.500000000000264E-002
 0.100000000000053E-001
 0.150000000000078E-001
 0.200000000000098E-001
 0.250000000000114E-001
 0.300000000000134E-001
 0.350000000000163E-001
 0.400000000000200E-001
 0.450000000000237E-001
 0.500000000000275E-001
 0.550000000000312E-001
 0.600000000000346E-001
 0.650000000000363E-001
 0.700000000000362E-001
 0.750000000000357E-001
 0.800000000000353E-001
 0.850000000000349E-001
 0.900000000000344E-001
 0.950000000000340E-001
 0.100000000000034E+000
 0.105000000000033E+000
 0.110000000000033E+000
 0.115000000000032E+000
 0.120000000000032E+000
 0.125000000000031E+000
 0.130000000000031E+000
 0.135000000000031E+000
 0.140000000000030E+000
 0.145000000000030E+000
 0.150000000000029E+000
 0.155000000000029E+000
 0.160000000000028E+000
 0.165000000000028E+000
 0.170000000000027E+000
 0.175000000000027E+000
 0.180000000000027E+000
 0.185000000000026E+000
 0.190000000000026E+000
 0.195000000000025E+000
 0.200000000000025E+000
 0.205000000000024E+000
 0.210000000000024E+000
 0.215000000000024E+000
 0.220000000000023E+000
 0.225000000000023E+000
 0.230000000000022E+000
 0.235000000000022E+000
 0.240000000000022E+000
 0.245000000000021E+000
 0.250000000000019E+000
 0.255000000000015E+000
 0.260000000000009E+000
 0.265000000000003E+000
 0.269999999999997E+000
 0.274999999999991E+000
 0.279999999999985E+000
 0.284999999999979E+000
 0.289999999999973E+000
 0.294999999999967E+000
 0.299999999999961E+000
 0.304999999999955E+000
 0.309999999999949E+000
 0.314999999999943E+000
 0.319999999999937E+000
 0.324999999999931E+000
 0.329999999999925E+000
 0.334999999999919E+000
 0.339999999999913E+000
 0.344999999999907E+000
 0.349999999999901E+000
 0.354999999999895E+000
 0.359999999999890E+000
 0.364999999999883E+000
 0.369999999999877E+000
 0.374999999999872E+000
 0.379999999999866E+000
 0.384999999999860E+000
 0.389999999999854E+000
 0.394999999999848E+000
 0.399999999999842E+000
 0.404999999999836E+000
 0.409999999999830E+000
 0.414999999999824E+000
 0.419999999999818E+000
 0.424999999999812E+000
 0.429999999999806E+000
 0.434999999999801E+000
 0.439999999999807E+000
 0.444999999999821E+000
 0.449999999999837E+000
 0.454999999999854E+000
 0.459999999999870E+000
 0.464999999999886E+000
 0.469999999999902E+000
 0.474999999999919E+000
 0.479999999999935E+000
 0.484999999999951E+000
 0.489999999999968E+000
 0.494999999999984E+000
 0.500000000000000E+000
 0.000000000000000E+000
 0.500000000000567E-002
 0.100000000000114E-001
 0.150000000000169E-001
 0.200000000000220E-001
 0.250000000000269E-001
 0.300000000000320E-001
 0.350000000000378E-001
 0.400000000000444E-001
 0.450000000000510E-001
 0.500000000000576E-001
 0.550000000000641E-001
 0.600000000000705E-001
 0.650000000000753E-001
 0.700000000000787E-001
 0.750000000000818E-001
 0.800000000000849E-001
 0.850000000000880E-001
 0.900000000000911E-001
 0.950000000000943E-001
 0.100000000000097E+000
 0.105000000000100E+000
 0.110000000000104E+000
 0.115000000000107E+000
 0.120000000000110E+000
 0.125000000000113E+000
 0.130000000000116E+000
 0.135000000000119E+000
 0.140000000000122E+000
 0.145000000000125E+000
 0.150000000000128E+000
 0.155000000000132E+000
 0.160000000000135E+000
 0.165000000000138E+000
 0.170000000000141E+000
 0.175000000000144E+000
 0.180000000000147E+000
 0.185000000000150E+000
 0.190000000000153E+000
 0.195000000000156E+000
 0.200000000000159E+000
 0.205000000000163E+000
 0.210000000000166E+000
 0.215000000000169E+000
 0.220000000000172E+000
 0.225000000000175E+000
 0.230000000000178E+000
 0.235000000000181E+000
 0.240000000000184E+000
 0.245000000000188E+000
 0.250000000000188E+000
 0.255000000000180E+000
 0.260000000000169E+000
 0.265000000000158E+000
 0.270000000000148E+000
 0.275000000000137E+000
 0.280000000000126E+000
 0.285000000000115E+000
 0.290000000000105E+000
 0.295000000000094E+000
 0.300000000000083E+000
 0.305000000000072E+000
 0.310000000000062E+000
 0.315000000000051E+000
 0.320000000000040E+000
 0.325000000000029E+000
 0.330000000000019E+000
 0.335000000000008E+000
 0.339999999999997E+000
 0.344999999999986E+000
 0.349999999999976E+000
 0.354999999999965E+000
 0.359999999999954E+000
 0.364999999999943E+000
 0.369999999999933E+000
 0.374999999999922E+000
 0.379999999999911E+000
 0.384999999999900E+000
 0.389999999999890E+000
 0.394999999999879E+000
 0.399999999999868E+000
 0.404999999999857E+000
 0.409999999999847E+000
 0.414999999999836E+000
 0.419999999999825E+000
 0.424999999999814E+000
 0.429999999999804E+000
 0.434999999999795E+000
 0.439999999999798E+000
 0.444999999999813E+000
 0.449999999999830E+000
 0.454999999999847E+000
 0.459999999999864E+000
 0.464999999999881E+000
 0.469999999999898E+000
 0.474999999999915E+000
 0.479999999999932E+000
 0.484999999999949E+000
 0.489999999999966E+000
 0.494999999999983E+000
 0.500000000000000E+000
 0.000000000000000E+000
 0.500000000000870E-002
 0.100000000000174E-001
 0.150000000000260E-001
 0.200000000000343E-001
 0.250000000000423E-001
 0.300000000000505E-001
 0.350000000000594E-001
 0.400000000000688E-001
 0.450000000000783E-001
 0.500000000000877E-001
 0.550000000000971E-001
 0.600000000001063E-001
 0.650000000001144E-001
 0.700000000001213E-001
 0.750000000001279E-001
 0.800000000001345E-001
 0.850000000001412E-001
 0.900000000001478E-001
 0.950000000001545E-001
 0.100000000000161E+000
 0.105000000000168E+000
 0.110000000000174E+000
 0.115000000000181E+000
 0.120000000000188E+000
 0.125000000000194E+000
 0.130000000000201E+000
 0.135000000000208E+000
 0.140000000000214E+000
 0.145000000000221E+000
 0.150000000000228E+000
 0.155000000000234E+000
 0.160000000000241E+000
 0.165000000000248E+000
 0.170000000000254E+000
 0.175000000000261E+000
 0.180000000000268E+000
 0.185000000000274E+000
 0.190000000000281E+000
 0.195000000000287E+000
 0.200000000000294E+000
 0.205000000000301E+000
 0.210000000000307E+000
 0.215000000000314E+000
 0.220000000000321E+000
 0.225000000000327E+000
 0.230000000000334E+000
 0.235000000000341E+000
 0.240000000000347E+000
 0.245000000000354E+000
 0.250000000000356E+000
 0.255000000000345E+000
 0.260000000000330E+000
 0.265000000000314E+000
 0.270000000000298E+000
 0.275000000000283E+000
 0.280000000000267E+000
 0.285000000000252E+000
 0.290000000000236E+000
 0.295000000000221E+000
 0.300000000000205E+000
 0.305000000000190E+000
 0.310000000000174E+000
 0.315000000000159E+000
 0.320000000000143E+000
 0.325000000000128E+000
 0.330000000000112E+000
 0.335000000000096E+000
 0.340000000000081E+000
 0.345000000000065E+000
 0.350000000000050E+000
 0.355000000000034E+000
 0.360000000000019E+000
 0.365000000000003E+000
 0.369999999999988E+000
 0.374999999999972E+000
 0.379999999999957E+000
 0.384999999999941E+000
 0.389999999999926E+000
 0.394999999999910E+000
 0.399999999999894E+000
 0.404999999999879E+000
 0.409999999999863E+000
 0.414999999999848E+000
 0.419999999999832E+000
 0.424999999999817E+000
 0.429999999999801E+000
 0.434999999999788E+000
 0.439999999999789E+000
 0.444999999999805E+000
 0.449999999999822E+000
 0.454999999999840E+000
 0.459999999999858E+000
 0.464999999999876E+000
 0.469999999999893E+000
 0.474999999999911E+000
 0.479999999999929E+000
 0.484999999999947E+000
 0.489999999999965E+000
 0.494999999999982E+000
 0.500000000000000E+000
 0.000000000000000E+000
 0.500000000001173E-002
 0.100000000000235E-001
 0.150000000000351E-001
 0.200000000000465E-001
 0.250000000000577E-001
 0.300000000000691E-001
 0.350000000000810E-001
 0.400000000000932E-001
 0.450000000001055E-001
 0.500000000001178E-001
 0.550000000001300E-001
 0.600000000001422E-001
 0.650000000001534E-001
 0.700000000001638E-001
 0.750000000001740E-001
 0.800000000001841E-001
 0.850000000001944E-001
 0.900000000002045E-001
 0.950000000002147E-001
 0.100000000000225E+000
 0.105000000000235E+000
 0.110000000000245E+000
 0.115000000000255E+000
 0.120000000000266E+000
 0.125000000000276E+000
 0.130000000000286E+000
 0.135000000000296E+000
 0.140000000000306E+000
 0.145000000000317E+000
 0.150000000000327E+000
 0.155000000000337E+000
 0.160000000000347E+000
 0.165000000000357E+000
 0.170000000000367E+000
 0.175000000000378E+000
 0.180000000000388E+000
 0.185000000000398E+000
 0.190000000000408E+000
 0.195000000000419E+000
 0.200000000000429E+000
 0.205000000000439E+000
 0.210000000000449E+000
 0.215000000000459E+000
 0.220000000000469E+000
 0.225000000000480E+000
 0.230000000000490E+000
 0.235000000000500E+000
 0.240000000000510E+000
 0.245000000000520E+000
 0.250000000000525E+000
 0.255000000000510E+000
 0.260000000000490E+000
 0.265000000000470E+000
 0.270000000000449E+000
 0.275000000000429E+000
 0.280000000000409E+000
 0.285000000000388E+000
 0.290000000000368E+000
 0.295000000000348E+000
 0.300000000000327E+000
 0.305000000000307E+000
 0.310000000000287E+000
 0.315000000000266E+000
 0.320000000000246E+000
 0.325000000000226E+000
 0.330000000000206E+000
 0.335000000000185E+000
 0.340000000000165E+000
 0.345000000000145E+000
 0.350000000000124E+000
 0.355000000000104E+000
 0.360000000000083E+000
 0.365000000000063E+000
 0.370000000000043E+000
 0.375000000000022E+000
 0.380000000000002E+000
 0.384999999999982E+000
 0.389999999999961E+000
 0.394999999999941E+000
 0.399999999999921E+000
 0.404999999999900E+000
 0.409999999999880E+000
 0.414999999999860E+000
 0.419999999999840E+000
 0.424999999999819E+000
 0.429999999999799E+000
 0.434999999999781E+000
 0.439999999999780E+000
 0.444999999999796E+000
 0.449999999999814E+000
 0.454999999999833E+000
 0.459999999999852E+000
 0.464999999999870E+000
 0.469999999999889E+000
 0.474999999999907E+000
 0.479999999999926E+000
 0.484999999999944E+000
 0.489999999999963E+000
 0.494999999999982E+000
 0.500000000000000E+000
 0.000000000000000E+000
 0.500000000001476E-002
 0.100000000000295E-001
 0.150000000000442E-001
 0.200000000000587E-001
 0.250000000000732E-001
 0.300000000000877E-001
 0.350000000001025E-001
 0.400000000001176E-001
 0.450000000001328E-001
 0.500000000001479E-001
 0.550000000001630E-001
 0.600000000001780E-001
 0.650000000001925E-001
 0.700000000002063E-001
 0.750000000002200E-001
 0.800000000002337E-001
 0.850000000002475E-001
 0.900000000002612E-001
 0.950000000002749E-001
 0.100000000000289E+000
 0.105000000000302E+000
 0.110000000000316E+000
 0.115000000000330E+000
 0.120000000000344E+000
 0.125000000000357E+000
 0.130000000000371E+000
 0.135000000000385E+000
 0.140000000000399E+000
 0.145000000000412E+000
 0.150000000000426E+000
 0.155000000000440E+000
 0.160000000000453E+000
 0.165000000000467E+000
 0.170000000000481E+000
 0.175000000000495E+000
 0.180000000000508E+000
 0.185000000000522E+000
 0.190000000000536E+000
 0.195000000000550E+000
 0.200000000000563E+000
 0.205000000000577E+000
 0.210000000000591E+000
 0.215000000000605E+000
 0.220000000000618E+000
 0.225000000000632E+000
 0.230000000000646E+000
 0.235000000000659E+000
 0.240000000000673E+000
 0.245000000000687E+000
 0.250000000000693E+000
 0.255000000000675E+000
 0.260000000000650E+000
 0.265000000000625E+000
 0.270000000000600E+000
 0.275000000000575E+000
 0.280000000000550E+000
 0.285000000000525E+000
 0.290000000000500E+000
 0.295000000000475E+000
 0.300000000000449E+000
 0.305000000000424E+000
 0.310000000000399E+000
 0.315000000000374E+000
 0.320000000000349E+000
 0.325000000000324E+000
 0.330000000000299E+000
 0.335000000000274E+000
 0.340000000000249E+000
 0.345000000000224E+000
 0.350000000000198E+000
 0.355000000000173E+000
 0.360000000000148E+000
 0.365000000000123E+000
 0.370000000000098E+000
 0.375000000000073E+000
 0.380000000000048E+000
 0.385000000000023E+000
 0.389999999999998E+000
 0.394999999999972E+000
 0.399999999999947E+000
 0.404999999999922E+000
 0.409999999999897E+000
 0.414999999999872E+000
 0.419999999999847E+000
 0.424999999999822E+000
 0.429999999999796E+000
 0.434999999999775E+000
 0.439999999999772E+000
 0.444999999999788E+000
 0.449999999999807E+000
 0.454999999999826E+000
 0.459999999999846E+000
 0.464999999999865E+000
 0.469999999999884E+000
 0.474999999999903E+000
 0.479999999999923E+000
 0.484999999999942E+000
 0.489999999999961E+000
 0.494999999999981E+000
 0.500000000000000E+000
 0.000000000000000E+000
 0.500000000001779E-002
 0.100000000000355E-001
 0.150000000000533E-001
 0.200000000000710E-001
 0.250000000000886E-001
 0.300000000001063E-001
 0.350000000001241E-001
 0.400000000001420E-001
 0.450000000001600E-001
 0.500000000001780E-001
 0.550000000001959E-001
 0.600000000002138E-001
 0.650000000002315E-001
 0.700000000002488E-001
 0.750000000002661E-001
 0.800000000002834E-001
 0.850000000003007E-001
 0.900000000003179E-001
 0.950000000003352E-001
 0.100000000000353E+000
 0.105000000000370E+000
 0.110000000000387E+000
 0.115000000000404E+000
 0.120000000000422E+000
 0.125000000000439E+000
 0.130000000000456E+000
 0.135000000000473E+000
 0.140000000000491E+000
 0.145000000000508E+000
 0.150000000000525E+000
 0.155000000000542E+000
 0.160000000000560E+000
 0.165000000000577E+000
 0.170000000000594E+000
 0.175000000000611E+000
 0.180000000000629E+000
 0.185000000000646E+000
 0.190000000000663E+000
 0.195000000000681E+000
 0.200000000000698E+000
 0.205000000000715E+000
 0.210000000000732E+000
 0.215000000000750E+000
 0.220000000000767E+000
 0.225000000000784E+000
 0.230000000000802E+000
 0.235000000000819E+000
 0.240000000000836E+000
 0.245000000000853E+000
 0.250000000000861E+000
 0.255000000000841E+000
 0.260000000000811E+000
 0.265000000000781E+000
 0.270000000000751E+000
 0.275000000000721E+000
 0.280000000000691E+000
 0.285000000000661E+000
 0.290000000000631E+000
 0.295000000000602E+000
 0.300000000000572E+000
 0.305000000000542E+000
 0.310000000000512E+000
 0.315000000000482E+000
 0.320000000000452E+000
 0.325000000000422E+000
 0.330000000000392E+000
 0.335000000000362E+000
 0.340000000000332E+000
 0.345000000000303E+000
 0.350000000000273E+000
 0.355000000000243E+000
 0.360000000000213E+000
 0.365000000000183E+000
 0.370000000000153E+000
 0.375000000000123E+000
 0.380000000000093E+000
 0.385000000000063E+000
 0.390000000000033E+000
 0.395000000000004E+000
 0.399999999999974E+000
 0.404999999999944E+000
 0.409999999999914E+000
 0.414999999999884E+000
 0.419999999999854E+000
 0.424999999999824E+000
 0.429999999999794E+000
 0.434999999999768E+000
 0.439999999999763E+000
 0.444999999999779E+000
 0.449999999999800E+000
 0.454999999999819E+000
 0.459999999999839E+000
 0.464999999999860E+000
 0.469999999999880E+000
 0.474999999999900E+000
 0.479999999999920E+000
 0.484999999999940E+000
 0.489999999999960E+000
 0.494999999999980E+000
 0.500000000000000E+000
 0.000000000000000E+000
 0.500000000002082E-002
 0.100000000000416E-001
 0.150000000000624E-001
 0.200000000000832E-001
 0.250000000001041E-001
 0.300000000001249E-001
 0.350000000001456E-001
 0.400000000001665E-001
 0.450000000001873E-001
 0.500000000002081E-001
 0.550000000002289E-001
 0.600000000002497E-001
 0.650000000002706E-001
 0.700000000002914E-001
 0.750000000003122E-001
 0.800000000003330E-001
 0.850000000003538E-001
 0.900000000003746E-001
 0.950000000003954E-001
 0.100000000000416E+000
 0.105000000000437E+000
 0.110000000000458E+000
 0.115000000000479E+000
 0.120000000000499E+000
 0.125000000000520E+000
 0.130000000000541E+000
 0.135000000000562E+000
 0.140000000000583E+000
 0.145000000000604E+000
 0.150000000000624E+000
 0.155000000000645E+000
 0.160000000000666E+000
 0.165000000000687E+000
 0.170000000000708E+000
 0.175000000000728E+000
 0.180000000000749E+000
 0.185000000000770E+000
 0.190000000000791E+000
 0.195000000000812E+000
 0.200000000000833E+000
 0.205000000000853E+000
 0.210000000000874E+000
 0.215000000000895E+000
 0.220000000000916E+000
 0.225000000000937E+000
 0.230000000000957E+000
 0.235000000000978E+000
 0.240000000000999E+000
 0.245000000001020E+000
 0.250000000001030E+000
 0.255000000001006E+000
 0.260000000000971E+000
 0.265000000000936E+000
 0.270000000000902E+000
 0.275000000000867E+000
 0.280000000000833E+000
 0.285000000000798E+000
 0.290000000000763E+000
 0.295000000000728E+000
 0.300000000000694E+000
 0.305000000000659E+000
 0.310000000000624E+000
 0.315000000000590E+000
 0.320000000000555E+000
 0.325000000000520E+000
 0.330000000000486E+000
 0.335000000000451E+000
 0.340000000000416E+000
 0.345000000000382E+000
 0.350000000000347E+000
 0.355000000000312E+000
 0.360000000000277E+000
 0.365000000000243E+000
 0.370000000000208E+000
 0.375000000000173E+000
 0.380000000000139E+000
 0.385000000000104E+000
 0.390000000000069E+000
 0.395000000000035E+000
 0.400000000000000E+000
 0.404999999999965E+000
 0.409999999999931E+000
 0.414999999999896E+000
 0.419999999999861E+000
 0.424999999999827E+000
 0.429999999999792E+000
 0.434999999999761E+000
 0.439999999999754E+000
 0.444999999999771E+000
 0.449999999999792E+000
 0.454999999999813E+000
 0.459999999999833E+000
 0.464999999999854E+000
 0.469999999999875E+000
 0.474999999999896E+000
 0.479999999999917E+000
 0.484999999999937E+000
 0.489999999999958E+000
 0.494999999999979E+000
 0.500000000000000E+000
 0.000000000000000E+000
 0.499999999999053E-002
 0.999999999998113E-002
 0.149999999999714E-001
 0.199999999999608E-001
 0.249999999999497E-001
 0.299999999999390E-001
 0.349999999999301E-001
 0.399999999999224E-001
 0.449999999999147E-001
 0.499999999999071E-001
 0.549999999998994E-001
 0.599999999998913E-001
 0.649999999998801E-001
 0.699999999998660E-001
 0.749999999998514E-001
 0.799999999998368E-001
 0.849999999998222E-001
 0.899999999998076E-001
 0.949999999997931E-001
 0.999999999997784E-001
 0.104999999999764E+000
 0.109999999999749E+000
 0.114999999999735E+000
 0.119999999999720E+000
 0.124999999999705E+000
 0.129999999999691E+000
 0.134999999999676E+000
 0.139999999999662E+000
 0.144999999999647E+000
 0.149999999999633E+000
 0.154999999999618E+000
 0.159999999999603E+000
 0.164999999999589E+000
 0.169999999999574E+000
 0.174999999999560E+000
 0.179999999999545E+000
 0.184999999999530E+000
 0.189999999999516E+000
 0.194999999999501E+000
 0.199999999999487E+000
 0.204999999999472E+000
 0.209999999999457E+000
 0.214999999999443E+000
 0.219999999999428E+000
 0.224999999999414E+000
 0.229999999999399E+000
 0.234999999999384E+000
 0.239999999999370E+000
 0.244999999999355E+000
 0.249999999999346E+000
 0.254999999999354E+000
 0.259999999999367E+000
 0.264999999999380E+000
 0.269999999999393E+000
 0.274999999999406E+000
 0.279999999999420E+000
 0.284999999999433E+000
 0.289999999999446E+000
 0.294999999999459E+000
 0.299999999999473E+000
 0.304999999999486E+000
 0.309999999999499E+000
 0.314999999999512E+000
 0.319999999999525E+000
 0.324999999999538E+000
 0.329999999999552E+000
 0.334999999999565E+000
 0.339999999999578E+000
 0.344999999999591E+000
 0.349999999999604E+000
 0.354999999999618E+000
 0.359999999999631E+000
 0.364999999999644E+000
 0.369999999999657E+000
 0.374999999999670E+000
 0.379999999999683E+000
 0.384999999999697E+000
 0.389999999999710E+000
 0.394999999999723E+000
 0.399999999999736E+000
 0.404999999999749E+000
 0.409999999999763E+000
 0.414999999999776E+000
 0.419999999999789E+000
 0.424999999999802E+000
 0.429999999999815E+000
 0.434999999999829E+000
 0.439999999999842E+000
 0.444999999999855E+000
 0.449999999999868E+000
 0.454999999999881E+000
 0.459999999999894E+000
 0.464999999999908E+000
 0.469999999999921E+000
 0.474999999999934E+000
 0.479999999999947E+000
 0.484999999999960E+000
 0.489999999999974E+000
 0.494999999999987E+000
 0.500000000000000E+000
 0.000000000000000E+000
 0.499999999999355E-002
 0.999999999998718E-002
 0.149999999999805E-001
 0.199999999999731E-001
 0.249999999999651E-001
 0.299999999999576E-001
 0.349999999999516E-001
 0.399999999999468E-001
 0.449999999999420E-001
 0.499999999999372E-001
 0.549999999999324E-001
 0.599999999999271E-001
 0.649999999999192E-001
 0.699999999999085E-001
 0.749999999998975E-001
 0.799999999998864E-001
 0.849999999998754E-001
 0.899999999998644E-001
 0.949999999998533E-001
 0.999999999998422E-001
 0.104999999999831E+000
 0.109999999999820E+000
 0.114999999999809E+000
 0.119999999999798E+000
 0.124999999999787E+000
 0.129999999999776E+000
 0.134999999999765E+000
 0.139999999999754E+000