 VARIABLES ="x" "y" "z" "Tw" "qw"
 ZONE  T = B1F1, I=1, J=11, K=2, DATAPACKING=BLOCK, VARLOCATION=([1-3]=NODAL,[4-5]=CELLCENTERED), SOLUTIONTIME=0.902040000000000E+005, STRANDID = 0
 0.000000000000000E+000
 0.000000000000000E+000
 0.000000000000000E+000
 0.000000000000000E+000
 0.000000000000000E+000
 0.000000000000000E+000
 0.000000000000000E+000
 0.000000000000000E+000
 0.000000000000000E+000
 0.000000000000000E+000
 0.000000000000000E+000
 0.000000000000000E+000
 0.000000000000000E+000
 0.000000000000000E+000
 0.000000000000000E+000
 0.000000000000000E+000
 0.000000000000000E+000
 0.000000000000000E+000
 0.000000000000000E+000
 0.000000000000000E+000
 0.000000000000000E+000
 0.000000000000000E+000
 0.000000000000000E+000
 0.100000000000282E-001
 0.200000000000548E-001
 0.300000000000836E-001
 0.400000000001101E-001
 0.500000000001370E-001
 0.600000000001107E-001
 0.700000000000830E-001
 0.800000000000553E-001
 0.900000000000277E-001
 0.100000000000000E+000
 0.000000000000000E+000
 0.100000000000282E-001
 0.200000000000548E-001
 0.300000000000836E-001
 0.400000000001101E-001
 0.500000000001370E-001
 0.600000000001107E-001
 0.700000000000830E-001
 0.800000000000553E-001
 0.900000000000277E-001
 0.100000000000000E+000
-0.500000000000000E-002
-0.500000000000000E-002
-0.500000000000000E-002
-0.500000000000000E-002
-0.500000000000000E-002
-0.500000000000000E-002
-0.500000000000000E-002
-0.500000000000000E-002
-0.500000000000000E-002
-0.500000000000000E-002
-0.500000000000000E-002
 0.500000000000000E-002
 0.500000000000000E-002
 0.500000000000000E-002
 0.500000000000000E-002
 0.500000000000000E-002
 0.500000000000000E-002
 0.500000000000000E-002
 0.500000000000000E-002
 0.500000000000000E-002
 0.500000000000000E-002
 0.500000000000000E-002
 0.100000000000000E+004
 0.100000000000000E+004
 0.100000000000000E+004
 0.100000000000000E+004
 0.100000000000000E+004
 0.100000000000000E+004
 0.100000000000000E+004
 0.100000000000000E+004
 0.100000000000000E+004
 0.100000000000000E+004
 0.181818181304091E+005
 0.181818181304086E+005
 0.181818181304085E+005
 0.181818181304084E+005
 0.181818181304083E+005
 0.181818181304091E+005
 0.181818181304090E+005
 0.181818181304089E+005
 0.181818181304088E+005
 0.181818181304087E+005
 ZONE  T = B2F2, I=1, J=8, K=2, DATAPACKING=BLOCK, VARLOCATION=([1-3]=NODAL,[4-5]=CELLCENTERED), SOLUTIONTIME=0.902040000000000E+005, STRANDID = 0
 0.100000000000000E+001
 0.100000000000000E+001
 0.100000000000000E+001
 0.100000000000000E+001
 0.100000000000000E+001
 0.100000000000000E+001
 0.100000000000000E+001
 0.100000000000000E+001
 0.100000000000000E+001
 0.100000000000000E+001
 0.100000000000000E+001
 0.100000000000000E+001
 0.100000000000000E+001
 0.100000000000000E+001
 0.100000000000000E+001
 0.100000000000000E+001
 0.000000000000000E+000
 0.142857142856881E-001
 0.285714285713600E-001
 0.428571428570306E-001
 0.571428571427437E-001
 0.714285714284959E-001
 0.857142857142466E-001
 0.100000000000000E+000
 0.000000000000000E+000
 0.142857142856881E-001
 0.285714285713600E-001
 0.428571428570306E-001
 0.571428571427437E-001
 0.714285714284959E-001
 0.857142857142466E-001
 0.100000000000000E+000
-0.500000000000000E-002
-0.500000000000000E-002
-0.500000000000000E-002
-0.500000000000000E-002
-0.500000000000000E-002
-0.500000000000000E-002
-0.500000000000000E-002
-0.500000000000000E-002
 0.500000000000000E-002
 0.500000000000000E-002
 0.500000000000000E-002
 0.500000000000000E-002
 0.500000000000000E-002
 0.500000000000000E-002
 0.500000000000000E-002
 0.500000000000000E-002
 0.200000000000000E+004
 0.200000000000000E+004
 0.200000000000000E+004
 0.200000000000000E+004
 0.200000000000000E+004
 0.200000000000000E+004
 0.200000000000000E+004
 0.181818186675173E+005
 0.181818186675173E+005
 0.181818186675173E+005
 0.181818186675173E+005
 0.181818186675173E+005
 0.181818186675173E+005
 0.181818186675173E+005
