 VARIABLES ="x" "y" "z" "Tw" "qw"
 ZONE  T = B1F1, I=1, J=41, K=2, DATAPACKING=BLOCK, VARLOCATION=([1-3]=NODAL,[4-5]=CELLCENTERED), SOLUTIONTIME=0.497100000000000E+004, STRANDID = 0
 0.000000000000000E+000
 0.000000000000000E+000
 0.000000000000000E+000
 0.000000000000000E+000
 0.000000000000000E+000
 0.000000000000000E+000
 0.000000000000000E+000
 0.000000000000000E+000
 0.000000000000000E+000
 0.000000000000000E+000
 0.000000000000000E+000
 0.000000000000000E+000
 0.000000000000000E+000
 0.000000000000000E+000
 0.000000000000000E+000
 0.000000000000000E+000
 0.000000000000000E+000
 0.000000000000000E+000
 0.000000000000000E+000
 0.000000000000000E+000
 0.000000000000000E+000
 0.000000000000000E+000
 0.000000000000000E+000
 0.000000000000000E+000
 0.000000000000000E+000
 0.000000000000000E+000
 0.000000000000000E+000
 0.000000000000000E+000
 0.000000000000000E+000
 0.000000000000000E+000
 0.000000000000000E+000
 0.000000000000000E+000
 0.000000000000000E+000
 0.000000000000000E+000
 0.000000000000000E+000
 0.000000000000000E+000
 0.000000000000000E+000
 0.000000000000000E+000
 0.000000000000000E+000
 0.000000000000000E+000
 0.000000000000000E+000
 0.000000000000000E+000
 0.000000000000000E+000
 0.000000000000000E+000
 0.000000000000000E+000
 0.000000000000000E+000
 0.000000000000000E+000
 0.000000000000000E+000
 0.000000000000000E+000
 0.000000000000000E+000
 0.000000000000000E+000
 0.000000000000000E+000
 0.000000000000000E+000
 0.000000000000000E+000
 0.000000000000000E+000
 0.000000000000000E+000
 0.000000000000000E+000
 0.000000000000000E+000
 0.000000000000000E+000
 0.000000000000000E+000
 0.000000000000000E+000
 0.000000000000000E+000
 0.000000000000000E+000
 0.000000000000000E+000
 0.000000000000000E+000
 0.000000000000000E+000
 0.000000000000000E+000
 0.000000000000000E+000
 0.000000000000000E+000
 0.000000000000000E+000
 0.000000000000000E+000
 0.000000000000000E+000
 0.000000000000000E+000
 0.000000000000000E+000
 0.000000000000000E+000
 0.000000000000000E+000
 0.000000000000000E+000
 0.000000000000000E+000
 0.000000000000000E+000
 0.000000000000000E+000
 0.000000000000000E+000
 0.000000000000000E+000
 0.000000000000000E+000
 0.100000000000310E-001
 0.200000000000510E-001
 0.300000000000863E-001
 0.400000000001128E-001
 0.500000000001329E-001
 0.600000000001725E-001
 0.700000000001948E-001
 0.800000000002192E-001
 0.900000000002566E-001
 0.100000000000277E+000
 0.110000000000297E+000
 0.120000000000334E+000
 0.130000000000359E+000
 0.140000000000381E+000
 0.150000000000415E+000
 0.160000000000441E+000
 0.170000000000469E+000
 0.180000000000499E+000
 0.190000000000524E+000
 0.200000000000548E+000
 0.210000000000526E+000
 0.220000000000498E+000
 0.230000000000470E+000
 0.240000000000443E+000
 0.250000000000415E+000
 0.260000000000387E+000
 0.270000000000360E+000
 0.280000000000332E+000
 0.290000000000304E+000
 0.300000000000277E+000
 0.310000000000249E+000
 0.320000000000221E+000
 0.330000000000194E+000
 0.340000000000166E+000
 0.350000000000138E+000
 0.360000000000111E+000
 0.370000000000083E+000
 0.380000000000055E+000
 0.390000000000028E+000
 0.400000000000000E+000
 0.000000000000000E+000
 0.100000000000310E-001
 0.200000000000510E-001
 0.300000000000863E-001
 0.400000000001128E-001
 0.500000000001329E-001
 0.600000000001725E-001
 0.700000000001948E-001
 0.800000000002192E-001
 0.900000000002566E-001
 0.100000000000277E+000
 0.110000000000297E+000
 0.120000000000334E+000
 0.130000000000359E+000
 0.140000000000381E+000
 0.150000000000415E+000
 0.160000000000441E+000
 0.170000000000469E+000
 0.180000000000499E+000
 0.190000000000524E+000
 0.200000000000548E+000
 0.210000000000526E+000
 0.220000000000498E+000
 0.230000000000470E+000
 0.240000000000443E+000
 0.250000000000415E+000
 0.260000000000387E+000
 0.270000000000360E+000
 0.280000000000332E+000
 0.290000000000304E+000
 0.300000000000277E+000
 0.310000000000249E+000
 0.320000000000221E+000
 0.330000000000194E+000
 0.340000000000166E+000
 0.350000000000138E+000
 0.360000000000111E+000
 0.370000000000083E+000
 0.380000000000055E+000
 0.390000000000028E+000
 0.400000000000000E+000
-0.500000000000000E-002
-0.500000000000000E-002
-0.500000000000000E-002
-0.500000000000000E-002
-0.500000000000000E-002
-0.500000000000000E-002
-0.500000000000000E-002
-0.500000000000000E-002
-0.500000000000000E-002
-0.500000000000000E-002
-0.500000000000000E-002
-0.500000000000000E-002
-0.500000000000000E-002
-0.500000000000000E-002
-0.500000000000000E-002
-0.500000000000000E-002
-0.500000000000000E-002
-0.500000000000000E-002
-0.500000000000000E-002
-0.500000000000000E-002
-0.500000000000000E-002
-0.500000000000000E-002
-0.500000000000000E-002
-0.500000000000000E-002
-0.500000000000000E-002
-0.500000000000000E-002
-0.500000000000000E-002
-0.500000000000000E-002
-0.500000000000000E-002
-0.500000000000000E-002
-0.500000000000000E-002
-0.500000000000000E-002
-0.500000000000000E-002
-0.500000000000000E-002
-0.500000000000000E-002
-0.500000000000000E-002
-0.500000000000000E-002
-0.500000000000000E-002
-0.500000000000000E-002
-0.500000000000000E-002
-0.500000000000000E-002
 0.500000000000000E-002
 0.500000000000000E-002
 0.500000000000000E-002
 0.500000000000000E-002
 0.500000000000000E-002
 0.500000000000000E-002
 0.500000000000000E-002
 0.500000000000000E-002
 0.500000000000000E-002
 0.500000000000000E-002
 0.500000000000000E-002
 0.500000000000000E-002
 0.500000000000000E-002
 0.500000000000000E-002
 0.500000000000000E-002
 0.500000000000000E-002
 0.500000000000000E-002
 0.500000000000000E-002
 0.500000000000000E-002
 0.500000000000000E-002
 0.500000000000000E-002
 0.500000000000000E-002
 0.500000000000000E-002
 0.500000000000000E-002
 0.500000000000000E-002
 0.500000000000000E-002
 0.500000000000000E-002
 0.500000000000000E-002
 0.500000000000000E-002
 0.500000000000000E-002
 0.500000000000000E-002
 0.500000000000000E-002
 0.500000000000000E-002
 0.500000000000000E-002
 0.500000000000000E-002
 0.500000000000000E-002
 0.500000000000000E-002
 0.500000000000000E-002
 0.500000000000000E-002
 0.500000000000000E-002
 0.500000000000000E-002
 0.273150000000000E+003
 0.273150000000000E+003
 0.273150000000000E+003
 0.273150000000000E+003
 0.273150000000000E+003
 0.273150000000000E+003
 0.273150000000000E+003
 0.273150000000000E+003
 0.273150000000000E+003
 0.273150000000000E+003
 0.273150000000000E+003
 0.273150000000000E+003
 0.273150000000000E+003
 0.273150000000000E+003
 0.273150000000000E+003
 0.273150000000000E+003
 0.273150000000000E+003
 0.273150000000000E+003
 0.273150000000000E+003
 0.273150000000000E+003
 0.273150000000000E+003
 0.273150000000000E+003
 0.273150000000000E+003
 0.273150000000000E+003
 0.273150000000000E+003
 0.273150000000000E+003
 0.273150000000000E+003
 0.273150000000000E+003
 0.273150000000000E+003
 0.273150000000000E+003
 0.273150000000000E+003
 0.273150000000000E+003
 0.273150000000000E+003
 0.273150000000000E+003
 0.273150000000000E+003
 0.273150000000000E+003
 0.273150000000000E+003
 0.273150000000000E+003
 0.273150000000000E+003
 0.273150000000000E+003
 0.153376532742006E+005
 0.360103853726821E+005
 0.521401665125015E+005
 0.655809371992873E+005
 0.771349353067426E+005
 0.872288566636834E+005
 0.961249048915396E+005
 0.103999977372539E+006
 0.110980916451043E+006
 0.117162505610552E+006
 0.122617637707531E+006
 0.127403501553033E+006
 0.131565558136818E+006
 0.135140203976334E+006
 0.138156611234827E+006
 0.140638027566641E+006
 0.142602706709764E+006
 0.144064576765582E+006
 0.145033714577209E+006
 0.145516670325168E+006
 0.145516670325148E+006
 0.145033714577148E+006
 0.144064576765478E+006
 0.142602706709617E+006
 0.140638027566469E+006
 0.138156611234625E+006
 0.135140203976100E+006
 0.131565558136569E+006
 0.127403501552767E+006
 0.122617637707246E+006
 0.117162505610258E+006
 0.110980916450745E+006
 0.103999977372243E+006
 0.961249048912485E+005
 0.872288566634048E+005
 0.771349353064818E+005
 0.655809371990478E+005
 0.521401665123022E+005
 0.360103853725300E+005
 0.153376532741138E+005
 ZONE  T = B1F2, I=1, J=41, K=2, DATAPACKING=BLOCK, VARLOCATION=([1-3]=NODAL,[4-5]=CELLCENTERED), SOLUTIONTIME=0.497100000000000E+004, STRANDID = 0
 0.600000000000000E+000
 0.600000000000000E+000
 0.600000000000000E+000
 0.600000000000000E+000
 0.600000000000000E+000
 0.600000000000000E+000
 0.600000000000000E+000
 0.600000000000000E+000
 0.600000000000000E+000
 0.600000000000000E+000
 0.600000000000000E+000
 0.600000000000000E+000
 0.600000000000000E+000
 0.600000000000000E+000
 0.600000000000000E+000
 0.600000000000000E+000
 0.600000000000000E+000
 0.600000000000000E+000
 0.600000000000000E+000
 0.600000000000000E+000
 0.600000000000000E+000
 0.600000000000000E+000
 0.600000000000000E+000
 0.600000000000000E+000
 0.600000000000000E+000
 0.600000000000000E+000
 0.600000000000000E+000
 0.600000000000000E+000
 0.600000000000000E+000
 0.600000000000000E+000
 0.600000000000000E+000
 0.600000000000000E+000
 0.600000000000000E+000
 0.600000000000000E+000
 0.600000000000000E+000
 0.600000000000000E+000
 0.600000000000000E+000
 0.600000000000000E+000
 0.600000000000000E+000
 0.600000000000000E+000
 0.600000000000000E+000
 0.600000000000000E+000
 0.600000000000000E+000
 0.600000000000000E+000
 0.600000000000000E+000
 0.600000000000000E+000
 0.600000000000000E+000
 0.600000000000000E+000
 0.600000000000000E+000
 0.600000000000000E+000
 0.600000000000000E+000
 0.600000000000000E+000
 0.600000000000000E+000
 0.600000000000000E+000
 0.600000000000000E+000
 0.600000000000000E+000
 0.600000000000000E+000
 0.600000000000000E+000
 0.600000000000000E+000
 0.600000000000000E+000
 0.600000000000000E+000
 0.600000000000000E+000
 0.600000000000000E+000
 0.600000000000000E+000
 0.600000000000000E+000
 0.600000000000000E+000
 0.600000000000000E+000
 0.600000000000000E+000
 0.600000000000000E+000
 0.600000000000000E+000
 0.600000000000000E+000
 0.600000000000000E+000
 0.600000000000000E+000
 0.600000000000000E+000
 0.600000000000000E+000
 0.600000000000000E+000
 0.600000000000000E+000
 0.600000000000000E+000
 0.600000000000000E+000
 0.600000000000000E+000
 0.600000000000000E+000
 0.600000000000000E+000
 0.000000000000000E+000
 0.999999999998193E-002
 0.199999999999612E-001
 0.299999999999440E-001
 0.399999999999299E-001
 0.499999999999142E-001
 0.599999999998869E-001
 0.699999999998582E-001
 0.799999999998241E-001
 0.899999999997954E-001
 0.999999999997667E-001
 0.109999999999738E+000
 0.119999999999709E+000
 0.129999999999681E+000
 0.139999999999652E+000
 0.149999999999618E+000
 0.159999999999584E+000
 0.169999999999555E+000
 0.179999999999526E+000
 0.189999999999497E+000
 0.199999999999474E+000
 0.209999999999498E+000
 0.219999999999521E+000
 0.229999999999550E+000
 0.239999999999577E+000
 0.249999999999602E+000
 0.259999999999635E+000
 0.269999999999656E+000
 0.279999999999679E+000
 0.289999999999715E+000
 0.299999999999734E+000
 0.309999999999753E+000
 0.319999999999790E+000
 0.329999999999813E+000
 0.339999999999834E+000
 0.349999999999873E+000
 0.359999999999892E+000
 0.369999999999917E+000
 0.379999999999951E+000
 0.389999999999970E+000
 0.400000000000000E+000
 0.000000000000000E+000
 0.999999999998193E-002
 0.199999999999612E-001
 0.299999999999440E-001
 0.399999999999299E-001
 0.499999999999142E-001
 0.599999999998869E-001
 0.699999999998582E-001
 0.799999999998241E-001
 0.899999999997954E-001
 0.999999999997667E-001
 0.109999999999738E+000
 0.119999999999709E+000
 0.129999999999681E+000
 0.139999999999652E+000
 0.149999999999618E+000
 0.159999999999584E+000
 0.169999999999555E+000
 0.179999999999526E+000
 0.189999999999497E+000
 0.199999999999474E+000
 0.209999999999498E+000
 0.219999999999521E+000
 0.229999999999550E+000
 0.239999999999577E+000
 0.249999999999602E+000
 0.259999999999635E+000
 0.269999999999656E+000
 0.279999999999679E+000
 0.289999999999715E+000
 0.299999999999734E+000
 0.309999999999753E+000
 0.319999999999790E+000
 0.329999999999813E+000
 0.339999999999834E+000
 0.349999999999873E+000
 0.359999999999892E+000
 0.369999999999917E+000
 0.379999999999951E+000
 0.389999999999970E+000
 0.400000000000000E+000
-0.500000000000000E-002
-0.500000000000000E-002
-0.500000000000000E-002
-0.500000000000000E-002
-0.500000000000000E-002
-0.500000000000000E-002
-0.500000000000000E-002
-0.500000000000000E-002
-0.500000000000000E-002
-0.500000000000000E-002
-0.500000000000000E-002
-0.500000000000000E-002
-0.500000000000000E-002
-0.500000000000000E-002
-0.500000000000000E-002
-0.500000000000000E-002
-0.500000000000000E-002
-0.500000000000000E-002
-0.500000000000000E-002
-0.500000000000000E-002
-0.500000000000000E-002
-0.500000000000000E-002
-0.500000000000000E-002
-0.500000000000000E-002
-0.500000000000000E-002
-0.500000000000000E-002
-0.500000000000000E-002
-0.500000000000000E-002
-0.500000000000000E-002
-0.500000000000000E-002
-0.500000000000000E-002
-0.500000000000000E-002
-0.500000000000000E-002
-0.500000000000000E-002
-0.500000000000000E-002
-0.500000000000000E-002
-0.500000000000000E-002
-0.500000000000000E-002
-0.500000000000000E-002
-0.500000000000000E-002
-0.500000000000000E-002
 0.500000000000000E-002
 0.500000000000000E-002
 0.500000000000000E-002
 0.500000000000000E-002
 0.500000000000000E-002
 0.500000000000000E-002
 0.500000000000000E-002
 0.500000000000000E-002
 0.500000000000000E-002
 0.500000000000000E-002
 0.500000000000000E-002
 0.500000000000000E-002
 0.500000000000000E-002
 0.500000000000000E-002
 0.500000000000000E-002
 0.500000000000000E-002
 0.500000000000000E-002
 0.500000000000000E-002
 0.500000000000000E-002
 0.500000000000000E-002
 0.500000000000000E-002
 0.500000000000000E-002
 0.500000000000000E-002
 0.500000000000000E-002
 0.500000000000000E-002
 0.500000000000000E-002
 0.500000000000000E-002
 0.500000000000000E-002
 0.500000000000000E-002
 0.500000000000000E-002
 0.500000000000000E-002
 0.500000000000000E-002
 0.500000000000000E-002
 0.500000000000000E-002
 0.500000000000000E-002
 0.500000000000000E-002
 0.500000000000000E-002
 0.500000000000000E-002
 0.500000000000000E-002
 0.500000000000000E-002
 0.500000000000000E-002
 0.273150000000000E+003
 0.273150000000000E+003
 0.273150000000000E+003
 0.273150000000000E+003
 0.273150000000000E+003
 0.273150000000000E+003
 0.273150000000000E+003
 0.273150000000000E+003
 0.273150000000000E+003
 0.273150000000000E+003
 0.273150000000000E+003
 0.273150000000000E+003
 0.273150000000000E+003
 0.273150000000000E+003
 0.273150000000000E+003
 0.273150000000000E+003
 0.273150000000000E+003
 0.273150000000000E+003
 0.273150000000000E+003
 0.273150000000000E+003
 0.273150000000000E+003
 0.273150000000000E+003
 0.273150000000000E+003
 0.273150000000000E+003
 0.273150000000000E+003
 0.273150000000000E+003
 0.273150000000000E+003
 0.273150000000000E+003
 0.273150000000000E+003
 0.273150000000000E+003
 0.273150000000000E+003
 0.273150000000000E+003
 0.273150000000000E+003
 0.273150000000000E+003
 0.273150000000000E+003
 0.273150000000000E+003
 0.273150000000000E+003
 0.273150000000000E+003
 0.273150000000000E+003
 0.273150000000000E+003
-0.153376532741279E+005
-0.360103853725544E+005
-0.521401665123325E+005
-0.655809371990899E+005
-0.771349353065327E+005
-0.872288566634534E+005
-0.961249048912911E+005
-0.103999977372280E+006
-0.110980916450775E+006
-0.117162505610285E+006
-0.122617637707269E+006
-0.127403501552786E+006
-0.131565558136583E+006
-0.135140203976115E+006
-0.138156611234632E+006
-0.140638027566477E+006
-0.142602706709624E+006
-0.144064576765481E+006
-0.145033714577154E+006
-0.145516670325145E+006
-0.145516670325164E+006
-0.145033714577209E+006
-0.144064576765581E+006
-0.142602706709761E+006
-0.140638027566638E+006
-0.138156611234823E+006
-0.135140203976330E+006
-0.131565558136816E+006
-0.127403501553027E+006
-0.122617637707523E+006
-0.117162505610548E+006
-0.110980916451034E+006
-0.103999977372533E+006
-0.961249048915345E+005
-0.872288566636754E+005
-0.771349353067358E+005
-0.655809371992813E+005
-0.521401665124956E+005
-0.360103853726782E+005
-0.153376532741975E+005
 ZONE  T = B1F3, I=61, J=1, K=2, DATAPACKING=BLOCK, VARLOCATION=([1-3]=NODAL,[4-5]=CELLCENTERED), SOLUTIONTIME=0.497100000000000E+004, STRANDID = 0
 0.000000000000000E+000
 0.999999999998132E-002
 0.199999999999619E-001
 0.299999999999400E-001
 0.399999999999205E-001
 0.499999999999049E-001
 0.599999999998898E-001
 0.699999999998725E-001
 0.799999999998518E-001
 0.899999999998227E-001
 0.999999999997935E-001
 0.109999999999766E+000
 0.119999999999741E+000
 0.129999999999712E+000
 0.139999999999682E+000
 0.149999999999653E+000
 0.159999999999624E+000
 0.169999999999595E+000
 0.179999999999566E+000
 0.189999999999537E+000
 0.199999999999508E+000
 0.209999999999478E+000
 0.219999999999449E+000
 0.229999999999431E+000
 0.239999999999402E+000
 0.249999999999373E+000
 0.259999999999344E+000
 0.269999999999315E+000
 0.279999999999285E+000
 0.289999999999256E+000
 0.299999999999238E+000
 0.309999999999255E+000
 0.319999999999275E+000
 0.329999999999311E+000
 0.339999999999328E+000
 0.349999999999363E+000
 0.359999999999384E+000
 0.369999999999411E+000
 0.379999999999440E+000
 0.389999999999459E+000
 0.399999999999496E+000
 0.409999999999513E+000
 0.419999999999547E+000
 0.429999999999569E+000
 0.439999999999595E+000
 0.449999999999624E+000
 0.459999999999654E+000
 0.469999999999680E+000
 0.479999999999702E+000
 0.489999999999736E+000
 0.499999999999746E+000
 0.509999999999760E+000
 0.519999999999797E+000
 0.529999999999815E+000
 0.539999999999837E+000
 0.549999999999871E+000
 0.559999999999888E+000
 0.569999999999927E+000
 0.579999999999944E+000
 0.589999999999980E+000
 0.600000000000000E+000
 0.000000000000000E+000
 0.999999999998132E-002
 0.199999999999619E-001
 0.299999999999400E-001
 0.399999999999205E-001
 0.499999999999049E-001
 0.599999999998898E-001
 0.699999999998725E-001
 0.799999999998518E-001
 0.899999999998227E-001
 0.999999999997935E-001
 0.109999999999766E+000
 0.119999999999741E+000
 0.129999999999712E+000
 0.139999999999682E+000
 0.149999999999653E+000
 0.159999999999624E+000
 0.169999999999595E+000
 0.179999999999566E+000
 0.189999999999537E+000
 0.199999999999508E+000
 0.209999999999478E+000
 0.219999999999449E+000
 0.229999999999431E+000
 0.239999999999402E+000
 0.249999999999373E+000
 0.259999999999344E+000
 0.269999999999315E+000
 0.279999999999285E+000
 0.289999999999256E+000
 0.299999999999238E+000
 0.309999999999255E+000
 0.319999999999275E+000
 0.329999999999311E+000
 0.339999999999328E+000
 0.349999999999363E+000
 0.359999999999384E+000
 0.369999999999411E+000
 0.379999999999440E+000
 0.389999999999459E+000
 0.399999999999496E+000
 0.409999999999513E+000
 0.419999999999547E+000
 0.429999999999569E+000
 0.439999999999595E+000
 0.449999999999624E+000
 0.459999999999654E+000
 0.469999999999680E+000
 0.479999999999702E+000
 0.489999999999736E+000
 0.499999999999746E+000
 0.509999999999760E+000
 0.519999999999797E+000
 0.529999999999815E+000
 0.539999999999837E+000
 0.549999999999871E+000
 0.559999999999888E+000
 0.569999999999927E+000
 0.579999999999944E+000
 0.589999999999980E+000
 0.600000000000000E+000
 0.000000000000000E+000
 0.000000000000000E+000
 0.000000000000000E+000
 0.000000000000000E+000
 0.000000000000000E+000
 0.000000000000000E+000
 0.000000000000000E+000
 0.000000000000000E+000
 0.000000000000000E+000
 0.000000000000000E+000
 0.000000000000000E+000
 0.000000000000000E+000
 0.000000000000000E+000
 0.000000000000000E+000
 0.000000000000000E+000
 0.000000000000000E+000
 0.000000000000000E+000
 0.000000000000000E+000
 0.000000000000000E+000
 0.000000000000000E+000
 0.000000000000000E+000
 0.000000000000000E+000
 0.000000000000000E+000
 0.000000000000000E+000
 0.000000000000000E+000
 0.000000000000000E+000
 0.000000000000000E+000
 0.000000000000000E+000
 0.000000000000000E+000
 0.000000000000000E+000
 0.000000000000000E+000
 0.000000000000000E+000
 0.000000000000000E+000
 0.000000000000000E+000
 0.000000000000000E+000
 0.000000000000000E+000
 0.000000000000000E+000
 0.000000000000000E+000
 0.000000000000000E+000
 0.000000000000000E+000
 0.000000000000000E+000
 0.000000000000000E+000
 0.000000000000000E+000
 0.000000000000000E+000
 0.000000000000000E+000
 0.000000000000000E+000
 0.000000000000000E+000
 0.000000000000000E+000
 0.000000000000000E+000
 0.000000000000000E+000
 0.000000000000000E+000
 0.000000000000000E+000
 0.000000000000000E+000
 0.000000000000000E+000
 0.000000000000000E+000
 0.000000000000000E+000
 0.000000000000000E+000
 0.000000000000000E+000
 0.000000000000000E+000
 0.000000000000000E+000
 0.000000000000000E+000
 0.000000000000000E+000
 0.000000000000000E+000
 0.000000000000000E+000
 0.000000000000000E+000
 0.000000000000000E+000
 0.000000000000000E+000
 0.000000000000000E+000
 0.000000000000000E+000
 0.000000000000000E+000
 0.000000000000000E+000
 0.000000000000000E+000
 0.000000000000000E+000
 0.000000000000000E+000
 0.000000000000000E+000
 0.000000000000000E+000
 0.000000000000000E+000
 0.000000000000000E+000
 0.000000000000000E+000
 0.000000000000000E+000
 0.000000000000000E+000
 0.000000000000000E+000
 0.000000000000000E+000
 0.000000000000000E+000
 0.000000000000000E+000
 0.000000000000000E+000
 0.000000000000000E+000
 0.000000000000000E+000
 0.000000000000000E+000
 0.000000000000000E+000
 0.000000000000000E+000
 0.000000000000000E+000
 0.000000000000000E+000
 0.000000000000000E+000
 0.000000000000000E+000
 0.000000000000000E+000
 0.000000000000000E+000
 0.000000000000000E+000
 0.000000000000000E+000
 0.000000000000000E+000
 0.000000000000000E+000
 0.000000000000000E+000
 0.000000000000000E+000
 0.000000000000000E+000
 0.000000000000000E+000
 0.000000000000000E+000
 0.000000000000000E+000
 0.000000000000000E+000
 0.000000000000000E+000
 0.000000000000000E+000
 0.000000000000000E+000
 0.000000000000000E+000
 0.000000000000000E+000
 0.000000000000000E+000
 0.000000000000000E+000
 0.000000000000000E+000
 0.000000000000000E+000
 0.000000000000000E+000
 0.000000000000000E+000
 0.000000000000000E+000
 0.000000000000000E+000
 0.000000000000000E+000
-0.500000000000000E-002
-0.500000000000000E-002
-0.500000000000000E-002
-0.500000000000000E-002
-0.500000000000000E-002
-0.500000000000000E-002
-0.500000000000000E-002
-0.500000000000000E-002
-0.500000000000000E-002
-0.500000000000000E-002
-0.500000000000000E-002
-0.500000000000000E-002
-0.500000000000000E-002
-0.500000000000000E-002
-0.500000000000000E-002
-0.500000000000000E-002
-0.500000000000000E-002
-0.500000000000000E-002
-0.500000000000000E-002
-0.500000000000000E-002
-0.500000000000000E-002
-0.500000000000000E-002
-0.500000000000000E-002
-0.500000000000000E-002
-0.500000000000000E-002
-0.500000000000000E-002
-0.500000000000000E-002
-0.500000000000000E-002
-0.500000000000000E-002
-0.500000000000000E-002
-0.500000000000000E-002
-0.500000000000000E-002
-0.500000000000000E-002
-0.500000000000000E-002
-0.500000000000000E-002
-0.500000000000000E-002
-0.500000000000000E-002
-0.500000000000000E-002
-0.500000000000000E-002
-0.500000000000000E-002
-0.500000000000000E-002
-0.500000000000000E-002
-0.500000000000000E-002
-0.500000000000000E-002
-0.500000000000000E-002
-0.500000000000000E-002
-0.500000000000000E-002
-0.500000000000000E-002
-0.500000000000000E-002
-0.500000000000000E-002
-0.500000000000000E-002
-0.500000000000000E-002
-0.500000000000000E-002
-0.500000000000000E-002
-0.500000000000000E-002
-0.500000000000000E-002
-0.500000000000000E-002
-0.500000000000000E-002
-0.500000000000000E-002
-0.500000000000000E-002
-0.500000000000000E-002
 0.500000000000000E-002
 0.500000000000000E-002
 0.500000000000000E-002
 0.500000000000000E-002
 0.500000000000000E-002
 0.500000000000000E-002
 0.500000000000000E-002
 0.500000000000000E-002
 0.500000000000000E-002
 0.500000000000000E-002
 0.500000000000000E-002
 0.500000000000000E-002
 0.500000000000000E-002
 0.500000000000000E-002
 0.500000000000000E-002
 0.500000000000000E-002
 0.500000000000000E-002
 0.500000000000000E-002
 0.500000000000000E-002
 0.500000000000000E-002
 0.500000000000000E-002
 0.500000000000000E-002
 0.500000000000000E-002
 0.500000000000000E-002
 0.500000000000000E-002
 0.500000000000000E-002
 0.500000000000000E-002
 0.500000000000000E-002
 0.500000000000000E-002
 0.500000000000000E-002
 0.500000000000000E-002
 0.500000000000000E-002
 0.500000000000000E-002
 0.500000000000000E-002
 0.500000000000000E-002
 0.500000000000000E-002
 0.500000000000000E-002
 0.500000000000000E-002
 0.500000000000000E-002
 0.500000000000000E-002
 0.500000000000000E-002
 0.500000000000000E-002
 0.500000000000000E-002
 0.500000000000000E-002
 0.500000000000000E-002
 0.500000000000000E-002
 0.500000000000000E-002
 0.500000000000000E-002
 0.500000000000000E-002
 0.500000000000000E-002
 0.500000000000000E-002
 0.500000000000000E-002
 0.500000000000000E-002
 0.500000000000000E-002
 0.500000000000000E-002
 0.500000000000000E-002
 0.500000000000000E-002
 0.500000000000000E-002
 0.500000000000000E-002
 0.500000000000000E-002
 0.500000000000000E-002
 0.273150000000000E+003
 0.273150000000000E+003
 0.273150000000000E+003
 0.273150000000000E+003
 0.273150000000000E+003
 0.273150000000000E+003
 0.273150000000000E+003
 0.273150000000000E+003
 0.273150000000000E+003
 0.273150000000000E+003
 0.273150000000000E+003
 0.273150000000000E+003
 0.273150000000000E+003
 0.273150000000000E+003
 0.273150000000000E+003
 0.273150000000000E+003
 0.273150000000000E+003
 0.273150000000000E+003
 0.273150000000000E+003
 0.273150000000000E+003
 0.273150000000000E+003
 0.273150000000000E+003
 0.273150000000000E+003
 0.273150000000000E+003
 0.273150000000000E+003
 0.273150000000000E+003
 0.273150000000000E+003
 0.273150000000000E+003
 0.273150000000000E+003
 0.273150000000000E+003
 0.273150000000000E+003
 0.273150000000000E+003
 0.273150000000000E+003
 0.273150000000000E+003
 0.273150000000000E+003
 0.273150000000000E+003
 0.273150000000000E+003
 0.273150000000000E+003
 0.273150000000000E+003
 0.273150000000000E+003
 0.273150000000000E+003
 0.273150000000000E+003
 0.273150000000000E+003
 0.273150000000000E+003
 0.273150000000000E+003
 0.273150000000000E+003
 0.273150000000000E+003
 0.273150000000000E+003
 0.273150000000000E+003
 0.273150000000000E+003
 0.273150000000000E+003
 0.273150000000000E+003
 0.273150000000000E+003
 0.273150000000000E+003
 0.273150000000000E+003
 0.273150000000000E+003
 0.273150000000000E+003
 0.273150000000000E+003
 0.273150000000000E+003
 0.273150000000000E+003
 0.153376532741262E+005
 0.360155342722740E+005
 0.521659110109232E+005
 0.656530221117197E+005
 0.772894051472927E+005
 0.875120600779205E+005
 0.965935041579622E+005
 0.104720965834282E+006
 0.112031647394917E+006
 0.118630736791179E+006
 0.124601596436352E+006
 0.130011976058652E+006
 0.134918021785238E+006
 0.139366979958428E+006
 0.143399086537413E+006
 0.147048926513700E+006
 0.150346436184278E+006
 0.153317657523681E+006
 0.155985316009743E+006
 0.158369269833497E+006
 0.160486863468239E+006
 0.162353208753447E+006
 0.163981410040863E+006
 0.165382745402071E+006
 0.166566812703366E+006
 0.167541647067167E+006
 0.168313814571670E+006
 0.168888485799868E+006
 0.169269491906483E+006
 0.169459365136407E+006
 0.169459365136417E+006
 0.169269491906505E+006
 0.168888485799905E+006
 0.168313814571739E+006
 0.167541647067258E+006
 0.166566812703472E+006
 0.165382745402202E+006
 0.163981410041013E+006
 0.162353208753613E+006
 0.160486863468414E+006
 0.158369269833691E+006
 0.155985316009948E+006
 0.153317657523898E+006
 0.150346436184508E+006
 0.147048926513934E+006
 0.143399086537653E+006
 0.139366979958671E+006
 0.134918021785485E+006
 0.130011976058900E+006
 0.124601596436605E+006
 0.118630736791429E+006
 0.112031647395165E+006
 0.104720965834521E+006
 0.965935041581967E+005
 0.875120600781478E+005
 0.772894051475100E+005
 0.656530221119140E+005
 0.521659110110860E+005
 0.360155342723956E+005
 0.153376532741844E+005
 ZONE  T = B1F4, I=61, J=1, K=2, DATAPACKING=BLOCK, VARLOCATION=([1-3]=NODAL,[4-5]=CELLCENTERED), SOLUTIONTIME=0.497100000000000E+004, STRANDID = 0
 0.000000000000000E+000
 0.100000000000203E-001
 0.200000000000565E-001
 0.300000000000737E-001
 0.400000000001128E-001
 0.500000000001302E-001
 0.600000000001648E-001
 0.700000000001866E-001
 0.800000000002054E-001
 0.900000000002429E-001
 0.100000000000257E+000
 0.110000000000267E+000
 0.120000000000302E+000
 0.130000000000323E+000
 0.140000000000350E+000
 0.150000000000379E+000
 0.160000000000409E+000
 0.170000000000436E+000
 0.180000000000458E+000
 0.190000000000492E+000
 0.200000000000510E+000
 0.210000000000546E+000
 0.220000000000566E+000
 0.230000000000595E+000
 0.240000000000622E+000
 0.250000000000643E+000
 0.260000000000679E+000
 0.270000000000696E+000
 0.280000000000732E+000
 0.290000000000753E+000
 0.300000000000770E+000
 0.310000000000752E+000
 0.320000000000723E+000
 0.330000000000694E+000
 0.340000000000665E+000
 0.350000000000636E+000
 0.360000000000607E+000
 0.370000000000578E+000
 0.380000000000571E+000
 0.390000000000542E+000
 0.400000000000513E+000
 0.410000000000484E+000
 0.420000000000456E+000
 0.430000000000426E+000
 0.440000000000398E+000
 0.450000000000369E+000
 0.460000000000340E+000
 0.470000000000311E+000
 0.480000000000282E+000
 0.490000000000253E+000
 0.500000000000224E+000
 0.510000000000156E+000
 0.520000000000123E+000
 0.530000000000094E+000
 0.540000000000065E+000
 0.550000000000043E+000
 0.560000000000051E+000
 0.570000000000022E+000
 0.580000000000030E+000
 0.590000000000007E+000
 0.600000000000000E+000
 0.000000000000000E+000
 0.100000000000203E-001
 0.200000000000565E-001
 0.300000000000737E-001
 0.400000000001128E-001
 0.500000000001302E-001
 0.600000000001648E-001
 0.700000000001866E-001
 0.800000000002054E-001
 0.900000000002429E-001
 0.100000000000257E+000
 0.110000000000267E+000
 0.120000000000302E+000
 0.130000000000323E+000
 0.140000000000350E+000
 0.150000000000379E+000
 0.160000000000409E+000
 0.170000000000436E+000
 0.180000000000458E+000
 0.190000000000492E+000
 0.200000000000510E+000
 0.210000000000546E+000
 0.220000000000566E+000
 0.230000000000595E+000