 VARIABLES ="x" "y" "z"  "T" "matID" "qvol" "k" "rho" "cs" "h"
 ZONE  T = Block1, I=101, J=3, K=2, DATAPACKING=BLOCK, VARLOCATION=([1-3]=NODAL,[4-10]=CELLCENTERED), SOLUTIONTIME=0.565070000000000E+005, STRANDID = 0
 0.000000000000000E+000
 0.999999999998180E-003
 0.199999999999639E-002
 0.299999999999453E-002
 0.399999999999252E-002
 0.499999999999030E-002
 0.599999999998831E-002
 0.699999999998669E-002
 0.799999999998537E-002
 0.899999999998405E-002
 0.999999999998248E-002
 0.109999999999813E-001
 0.119999999999796E-001
 0.129999999999773E-001
 0.139999999999746E-001
 0.149999999999717E-001
 0.159999999999689E-001
 0.169999999999660E-001
 0.179999999999631E-001
 0.189999999999593E-001
 0.199999999999560E-001
 0.209999999999531E-001
 0.219999999999503E-001
 0.229999999999474E-001
 0.239999999999445E-001
 0.249999999999417E-001
 0.259999999999388E-001
 0.269999999999359E-001
 0.279999999999331E-001
 0.289999999999302E-001
 0.299999999999273E-001
 0.309999999999244E-001
 0.319999999999216E-001
 0.329999999999187E-001
 0.339999999999158E-001
 0.349999999999130E-001
 0.359999999999101E-001
 0.369999999999067E-001
 0.379999999999021E-001
 0.389999999998988E-001
 0.399999999998959E-001
 0.409999999998930E-001
 0.419999999998902E-001
 0.429999999998873E-001
 0.439999999998844E-001
 0.449999999998816E-001
 0.459999999998787E-001
 0.469999999998758E-001
 0.479999999998729E-001
 0.489999999998701E-001
 0.499999999998686E-001
 0.509999999998695E-001
 0.519999999998726E-001
 0.529999999998755E-001
 0.539999999998779E-001
 0.549999999998802E-001
 0.559999999998834E-001
 0.569999999998862E-001
 0.579999999998885E-001
 0.589999999998909E-001
 0.599999999998943E-001
 0.609999999998969E-001
 0.619999999998992E-001
 0.629999999999016E-001
 0.639999999999051E-001
 0.649999999999087E-001
 0.659999999999093E-001
 0.669999999999119E-001
 0.679999999999160E-001
 0.689999999999192E-001
 0.699999999999198E-001
 0.709999999999228E-001
 0.719999999999268E-001
 0.729999999999297E-001
 0.739999999999303E-001
 0.749999999999336E-001
 0.759999999999369E-001
 0.769999999999375E-001
 0.779999999999404E-001
 0.789999999999444E-001
 0.799999999999474E-001
 0.809999999999480E-001
 0.819999999999512E-001
 0.829999999999553E-001
 0.839999999999579E-001
 0.849999999999585E-001
 0.859999999999621E-001
 0.869999999999661E-001
 0.879999999999684E-001
 0.889999999999690E-001
 0.899999999999729E-001
 0.909999999999769E-001
 0.919999999999790E-001
 0.929999999999797E-001
 0.939999999999837E-001
 0.949999999999878E-001
 0.959999999999895E-001
 0.969999999999905E-001
 0.979999999999946E-001
 0.989999999999986E-001
 0.100000000000000E+000
 0.000000000000000E+000
 0.999999999999819E-003
 0.200000000000101E-002
 0.300000000000217E-002
 0.400000000000174E-002
 0.500000000000152E-002
 0.600000000000261E-002
 0.700000000000389E-002
 0.800000000000363E-002
 0.900000000000403E-002
 0.100000000000053E-001
 0.110000000000067E-001
 0.120000000000062E-001
 0.130000000000063E-001
 0.140000000000070E-001
 0.150000000000074E-001
 0.160000000000063E-001
 0.170000000000063E-001
 0.180000000000069E-001
 0.190000000000067E-001
 0.200000000000054E-001
 0.210000000000055E-001
 0.220000000000062E-001
 0.230000000000062E-001
 0.240000000000051E-001
 0.250000000000054E-001
 0.260000000000057E-001
 0.270000000000046E-001
 0.280000000000047E-001
 0.290000000000053E-001
 0.300000000000054E-001
 0.310000000000044E-001
 0.320000000000046E-001
 0.330000000000052E-001
 0.340000000000052E-001
 0.350000000000041E-001
 0.360000000000045E-001
 0.370000000000046E-001
 0.380000000000035E-001
 0.390000000000031E-001
 0.400000000000030E-001
 0.410000000000034E-001
 0.420000000000031E-001
 0.430000000000029E-001
 0.440000000000029E-001
 0.450000000000032E-001
 0.460000000000029E-001
 0.470000000000027E-001
 0.480000000000028E-001
 0.490000000000030E-001
 0.500000000000028E-001
 0.510000000000026E-001
 0.520000000000027E-001
 0.530000000000028E-001
 0.540000000000026E-001
 0.550000000000024E-001
 0.560000000000026E-001
 0.570000000000026E-001
 0.580000000000024E-001
 0.590000000000022E-001
 0.600000000000025E-001
 0.610000000000024E-001
 0.620000000000022E-001
 0.630000000000019E-001
 0.640000000000024E-001
 0.650000000000027E-001
 0.660000000000017E-001
 0.670000000000016E-001
 0.680000000000023E-001
 0.690000000000024E-001
 0.700000000000014E-001
 0.710000000000015E-001
 0.720000000000021E-001
 0.730000000000022E-001
 0.740000000000011E-001
 0.750000000000014E-001
 0.760000000000016E-001
 0.770000000000006E-001
 0.780000000000006E-001
 0.790000000000013E-001
 0.800000000000014E-001
 0.810000000000003E-001
 0.820000000000005E-001
 0.830000000000012E-001
 0.840000000000011E-001
 0.850000000000000E-001
 0.860000000000004E-001
 0.870000000000010E-001
 0.880000000000008E-001
 0.889999999999997E-001
 0.900000000000003E-001
 0.910000000000009E-001
 0.920000000000006E-001
 0.929999999999995E-001
 0.940000000000002E-001
 0.950000000000008E-001
 0.960000000000003E-001
 0.969999999999994E-001
 0.980000000000000E-001
 0.990000000000007E-001
 0.100000000000000E+000
 0.000000000000000E+000
 0.100000000000146E-002
 0.200000000000564E-002
 0.300000000000980E-002
 0.400000000001095E-002
 0.500000000001274E-002
 0.600000000001691E-002
 0.700000000002109E-002
 0.800000000002191E-002
 0.900000000002402E-002
 0.100000000000282E-001
 0.110000000000322E-001
 0.120000000000329E-001
 0.130000000000353E-001
 0.140000000000395E-001
 0.150000000000431E-001
 0.160000000000438E-001
 0.170000000000466E-001
 0.180000000000508E-001
 0.190000000000541E-001
 0.200000000000548E-001
 0.210000000000579E-001
 0.220000000000620E-001
 0.230000000000650E-001
 0.240000000000657E-001
 0.250000000000692E-001
 0.260000000000726E-001
 0.270000000000733E-001
 0.280000000000763E-001
 0.290000000000805E-001
 0.300000000000835E-001
 0.310000000000842E-001
 0.320000000000876E-001
 0.330000000000917E-001
 0.340000000000945E-001
 0.350000000000952E-001
 0.360000000000988E-001
 0.370000000001025E-001
 0.380000000001050E-001
 0.390000000001074E-001
 0.400000000001101E-001
 0.410000000001136E-001
 0.420000000001161E-001
 0.430000000001185E-001
 0.440000000001214E-001
 0.450000000001248E-001
 0.460000000001272E-001
 0.470000000001297E-001
 0.480000000001327E-001
 0.490000000001359E-001
 0.500000000001370E-001
 0.510000000001356E-001
 0.520000000001328E-001
 0.530000000001300E-001
 0.540000000001273E-001
 0.550000000001245E-001
 0.560000000001217E-001
 0.570000000001190E-001
 0.580000000001162E-001
 0.590000000001134E-001
 0.600000000001107E-001
 0.610000000001079E-001
 0.620000000001051E-001
 0.630000000001024E-001
 0.640000000000996E-001
 0.650000000000968E-001
 0.660000000000941E-001
 0.670000000000913E-001
 0.680000000000885E-001
 0.690000000000858E-001
 0.700000000000830E-001
 0.710000000000802E-001
 0.720000000000775E-001
 0.730000000000747E-001
 0.740000000000719E-001
 0.750000000000692E-001
 0.760000000000664E-001
 0.770000000000636E-001
 0.780000000000609E-001
 0.790000000000581E-001
 0.800000000000553E-001
 0.810000000000526E-001
 0.820000000000498E-001
 0.830000000000470E-001
 0.840000000000443E-001
 0.850000000000415E-001
 0.860000000000387E-001
 0.870000000000360E-001
 0.880000000000332E-001
 0.890000000000304E-001
 0.900000000000277E-001
 0.910000000000249E-001
 0.920000000000221E-001
 0.930000000000194E-001
 0.940000000000166E-001
 0.950000000000138E-001
 0.960000000000111E-001
 0.970000000000083E-001
 0.980000000000055E-001
 0.990000000000028E-001
 0.100000000000000E+000
 0.000000000000000E+000
 0.999999999998180E-003
 0.199999999999639E-002
 0.299999999999453E-002
 0.399999999999252E-002
 0.499999999999030E-002
 0.599999999998831E-002
 0.699999999998669E-002
 0.799999999998537E-002
 0.899999999998405E-002
 0.999999999998248E-002
 0.109999999999813E-001
 0.119999999999796E-001
 0.129999999999773E-001
 0.139999999999746E-001
 0.149999999999717E-001
 0.159999999999689E-001
 0.169999999999660E-001
 0.179999999999631E-001
 0.189999999999593E-001
 0.199999999999560E-001
 0.209999999999531E-001
 0.219999999999503E-001
 0.229999999999474E-001
 0.239999999999445E-001
 0.249999999999417E-001
 0.259999999999388E-001
 0.269999999999359E-001
 0.279999999999331E-001
 0.289999999999302E-001
 0.299999999999273E-001
 0.309999999999244E-001
 0.319999999999216E-001
 0.329999999999187E-001
 0.339999999999158E-001
 0.349999999999130E-001
 0.359999999999101E-001
 0.369999999999067E-001
 0.379999999999021E-001
 0.389999999998988E-001
 0.399999999998959E-001
 0.409999999998930E-001
 0.419999999998902E-001
 0.429999999998873E-001
 0.439999999998844E-001
 0.449999999998816E-001
 0.459999999998787E-001
 0.469999999998758E-001
 0.479999999998729E-001
 0.489999999998701E-001
 0.499999999998686E-001
 0.509999999998695E-001
 0.519999999998726E-001
 0.529999999998755E-001
 0.539999999998779E-001
 0.549999999998802E-001
 0.559999999998834E-001
 0.569999999998862E-001
 0.579999999998885E-001
 0.589999999998909E-001
 0.599999999998943E-001
 0.609999999998969E-001
 0.619999999998992E-001
 0.629999999999016E-001
 0.639999999999051E-001
 0.649999999999087E-001
 0.659999999999093E-001
 0.669999999999119E-001
 0.679999999999160E-001
 0.689999999999192E-001
 0.699999999999198E-001
 0.709999999999228E-001
 0.719999999999268E-001
 0.729999999999297E-001
 0.739999999999303E-001
 0.749999999999336E-001
 0.759999999999369E-001
 0.769999999999375E-001
 0.779999999999404E-001
 0.789999999999444E-001
 0.799999999999474E-001
 0.809999999999480E-001
 0.819999999999512E-001
 0.829999999999553E-001
 0.839999999999579E-001
 0.849999999999585E-001
 0.859999999999621E-001
 0.869999999999661E-001
 0.879999999999684E-001
 0.889999999999690E-001
 0.899999999999729E-001
 0.909999999999769E-001
 0.919999999999790E-001
 0.929999999999797E-001
 0.939999999999837E-001
 0.949999999999878E-001
 0.959999999999895E-001
 0.969999999999905E-001
 0.979999999999946E-001
 0.989999999999986E-001
 0.100000000000000E+000
 0.000000000000000E+000
 0.999999999999819E-003
 0.200000000000101E-002
 0.300000000000217E-002
 0.400000000000174E-002
 0.500000000000152E-002
 0.600000000000261E-002
 0.700000000000389E-002
 0.800000000000363E-002
 0.900000000000403E-002
 0.100000000000053E-001
 0.110000000000067E-001
 0.120000000000062E-001
 0.130000000000063E-001
 0.140000000000070E-001
 0.150000000000074E-001
 0.160000000000063E-001
 0.170000000000063E-001
 0.180000000000069E-001
 0.190000000000067E-001
 0.200000000000054E-001
 0.210000000000055E-001
 0.220000000000062E-001
 0.230000000000062E-001
 0.240000000000051E-001
 0.250000000000054E-001
 0.260000000000057E-001
 0.270000000000046E-001
 0.280000000000047E-001
 0.290000000000053E-001
 0.300000000000054E-001
 0.310000000000044E-001
 0.320000000000046E-001
 0.330000000000052E-001
 0.340000000000052E-001
 0.350000000000041E-001
 0.360000000000045E-001
 0.370000000000046E-001
 0.380000000000035E-001
 0.390000000000031E-001
 0.400000000000030E-001
 0.410000000000034E-001
 0.420000000000031E-001
 0.430000000000029E-001
 0.440000000000029E-001
 0.450000000000032E-001
 0.460000000000029E-001
 0.470000000000027E-001
 0.480000000000028E-001
 0.490000000000030E-001
 0.500000000000028E-001
 0.510000000000026E-001
 0.520000000000027E-001
 0.530000000000028E-001
 0.540000000000026E-001
 0.550000000000024E-001
 0.560000000000026E-001
 0.570000000000026E-001
 0.580000000000024E-001
 0.590000000000022E-001
 0.600000000000025E-001
 0.610000000000024E-001
 0.620000000000022E-001
 0.630000000000019E-001
 0.640000000000024E-001
 0.650000000000027E-001
 0.660000000000017E-001
 0.670000000000016E-001
 0.680000000000023E-001
 0.690000000000024E-001
 0.700000000000014E-001
 0.710000000000015E-001
 0.720000000000021E-001
 0.730000000000022E-001
 0.740000000000011E-001
 0.750000000000014E-001
 0.760000000000016E-001
 0.770000000000006E-001
 0.780000000000006E-001
 0.790000000000013E-001
 0.800000000000014E-001
 0.810000000000003E-001
 0.820000000000005E-001
 0.830000000000012E-001
 0.840000000000011E-001
 0.850000000000000E-001
 0.860000000000004E-001
 0.870000000000010E-001
 0.880000000000008E-001
 0.889999999999997E-001
 0.900000000000003E-001
 0.910000000000009E-001
 0.920000000000006E-001
 0.929999999999995E-001
 0.940000000000002E-001
 0.950000000000008E-001
 0.960000000000003E-001
 0.969999999999994E-001
 0.980000000000000E-001
 0.990000000000007E-001
 0.100000000000000E+000
 0.000000000000000E+000
 0.100000000000146E-002
 0.200000000000564E-002
 0.300000000000980E-002
 0.400000000001095E-002
 0.500000000001274E-002
 0.600000000001691E-002
 0.700000000002109E-002
 0.800000000002191E-002
 0.900000000002402E-002
 0.100000000000282E-001
 0.110000000000322E-001
 0.120000000000329E-001
 0.130000000000353E-001
 0.140000000000395E-001
 0.150000000000431E-001
 0.160000000000438E-001
 0.170000000000466E-001
 0.180000000000508E-001
 0.190000000000541E-001
 0.200000000000548E-001
 0.210000000000579E-001
 0.220000000000620E-001
 0.230000000000650E-001
 0.240000000000657E-001
 0.250000000000692E-001
 0.260000000000726E-001
 0.270000000000733E-001
 0.280000000000763E-001
 0.290000000000805E-001
 0.300000000000835E-001
 0.310000000000842E-001
 0.320000000000876E-001
 0.330000000000917E-001
 0.340000000000945E-001
 0.350000000000952E-001
 0.360000000000988E-001
 0.370000000001025E-001
 0.380000000001050E-001
 0.390000000001074E-001
 0.400000000001101E-001
 0.410000000001136E-001
 0.420000000001161E-001
 0.430000000001185E-001
 0.440000000001214E-001
 0.450000000001248E-001
 0.460000000001272E-001
 0.470000000001297E-001
 0.480000000001327E-001
 0.490000000001359E-001
 0.500000000001370E-001
 0.510000000001356E-001
 0.520000000001328E-001
 0.530000000001300E-001
 0.540000000001273E-001
 0.550000000001245E-001
 0.560000000001217E-001
 0.570000000001190E-001
 0.580000000001162E-001
 0.590000000001134E-001
 0.600000000001107E-001
 0.610000000001079E-001
 0.620000000001051E-001
 0.630000000001024E-001
 0.640000000000996E-001
 0.650000000000968E-001
 0.660000000000941E-001
 0.670000000000913E-001
 0.680000000000885E-001
 0.690000000000858E-001
 0.700000000000830E-001
 0.710000000000802E-001
 0.720000000000775E-001
 0.730000000000747E-001
 0.740000000000719E-001
 0.750000000000692E-001
 0.760000000000664E-001
 0.770000000000636E-001
 0.780000000000609E-001
 0.790000000000581E-001
 0.800000000000553E-001
 0.810000000000526E-001
 0.820000000000498E-001
 0.830000000000470E-001
 0.840000000000443E-001
 0.850000000000415E-001
 0.860000000000387E-001
 0.870000000000360E-001
 0.880000000000332E-001
 0.890000000000304E-001
 0.900000000000277E-001
 0.910000000000249E-001
 0.920000000000221E-001
 0.930000000000194E-001
 0.940000000000166E-001
 0.950000000000138E-001
 0.960000000000111E-001
 0.970000000000083E-001
 0.980000000000055E-001
 0.990000000000028E-001
 0.100000000000000E+000
 0.000000000000000E+000
 0.000000000000000E+000
 0.000000000000000E+000
 0.000000000000000E+000
 0.000000000000000E+000
 0.000000000000000E+000
 0.000000000000000E+000
 0.000000000000000E+000
 0.000000000000000E+000
 0.000000000000000E+000
 0.000000000000000E+000
 0.000000000000000E+000
 0.000000000000000E+000
 0.000000000000000E+000
 0.000000000000000E+000
 0.000000000000000E+000
 0.000000000000000E+000
 0.000000000000000E+000
 0.000000000000000E+000
 0.000000000000000E+000
 0.000000000000000E+000
 0.000000000000000E+000
 0.000000000000000E+000
 0.000000000000000E+000
 0.000000000000000E+000
 0.000000000000000E+000
 0.000000000000000E+000
 0.000000000000000E+000
 0.000000000000000E+000
 0.000000000000000E+000
 0.000000000000000E+000
 0.000000000000000E+000
 0.000000000000000E+000
 0.000000000000000E+000
 0.000000000000000E+000
 0.000000000000000E+000
 0.000000000000000E+000
 0.000000000000000E+000
 0.000000000000000E+000
 0.000000000000000E+000
 0.000000000000000E+000
 0.000000000000000E+000
 0.000000000000000E+000
 0.000000000000000E+000
 0.000000000000000E+000
 0.000000000000000E+000
 0.000000000000000E+000
 0.000000000000000E+000
 0.000000000000000E+000
 0.000000000000000E+000
 0.000000000000000E+000
 0.000000000000000E+000
 0.000000000000000E+000
 0.000000000000000E+000
 0.000000000000000E+000
 0.000000000000000E+000
 0.000000000000000E+000
 0.000000000000000E+000
 0.000000000000000E+000
 0.000000000000000E+000
 0.000000000000000E+000
 0.000000000000000E+000
 0.000000000000000E+000
 0.000000000000000E+000
 0.000000000000000E+000
 0.000000000000000E+000
 0.000000000000000E+000
 0.000000000000000E+000
 0.000000000000000E+000
 0.000000000000000E+000
 0.000000000000000E+000
 0.000000000000000E+000
 0.000000000000000E+000
 0.000000000000000E+000
 0.000000000000000E+000
 0.000000000000000E+000
 0.000000000000000E+000
 0.000000000000000E+000
 0.000000000000000E+000
 0.000000000000000E+000
 0.000000000000000E+000
 0.000000000000000E+000
 0.000000000000000E+000
 0.000000000000000E+000
 0.000000000000000E+000
 0.000000000000000E+000
 0.000000000000000E+000
 0.000000000000000E+000
 0.000000000000000E+000
 0.000000000000000E+000
 0.000000000000000E+000
 0.000000000000000E+000
 0.000000000000000E+000
 0.000000000000000E+000
 0.000000000000000E+000
 0.000000000000000E+000
 0.000000000000000E+000
 0.000000000000000E+000
 0.000000000000000E+000
 0.000000000000000E+000
 0.000000000000000E+000
 0.500000000001322E-002
 0.500000000001296E-002
 0.500000000001270E-002
 0.500000000001243E-002
 0.500000000001217E-002
 0.500000000001191E-002
 0.500000000001165E-002
 0.500000000001138E-002
 0.500000000001112E-002
 0.500000000001086E-002
 0.500000000001060E-002
 0.500000000001033E-002
 0.500000000001007E-002
 0.500000000000981E-002
 0.500000000000955E-002
 0.500000000000928E-002
 0.500000000000902E-002
 0.500000000000876E-002
 0.500000000000850E-002
 0.500000000000823E-002
 0.500000000000797E-002
 0.500000000000771E-002
 0.500000000000744E-002
 0.500000000000718E-002
 0.500000000000692E-002
 0.500000000000666E-002
 0.500000000000640E-002
 0.500000000000613E-002
 0.500000000000587E-002
 0.500000000000561E-002
 0.500000000000534E-002
 0.500000000000508E-002
 0.500000000000482E-002
 0.500000000000456E-002
 0.500000000000429E-002
 0.500000000000403E-002
 0.500000000000377E-002
 0.500000000000351E-002
 0.500000000000324E-002
 0.500000000000298E-002
 0.500000000000272E-002
 0.500000000000246E-002
 0.500000000000220E-002
 0.500000000000193E-002
 0.500000000000167E-002
 0.500000000000141E-002
 0.500000000000114E-002
 0.500000000000088E-002
 0.500000000000062E-002
 0.500000000000036E-002
 0.500000000000009E-002
 0.499999999999983E-002
 0.499999999999957E-002
 0.499999999999931E-002
 0.499999999999904E-002
 0.499999999999878E-002
 0.499999999999852E-002
 0.499999999999826E-002
 0.499999999999799E-002
 0.499999999999773E-002
 0.499999999999747E-002
 0.499999999999721E-002
 0.499999999999694E-002
 0.499999999999668E-002
 0.499999999999642E-002
 0.499999999999616E-002
 0.499999999999589E-002
 0.499999999999563E-002
 0.499999999999537E-002
 0.499999999999510E-002
 0.499999999999484E-002
 0.499999999999458E-002
 0.499999999999432E-002
 0.499999999999405E-002
 0.499999999999379E-002
 0.499999999999353E-002
 0.499999999999327E-002
 0.499999999999300E-002
 0.499999999999274E-002
 0.499999999999248E-002
 0.499999999999222E-002
 0.499999999999195E-002
 0.499999999999169E-002
 0.499999999999143E-002
 0.499999999999117E-002
 0.499999999999090E-002
 0.499999999999064E-002
 0.499999999999038E-002
 0.499999999999012E-002
 0.499999999998985E-002
 0.499999999998959E-002
 0.499999999998933E-002
 0.499999999998907E-002
 0.499999999998880E-002
 0.499999999998854E-002
 0.499999999998828E-002
 0.499999999998801E-002
 0.499999999998775E-002
 0.499999999998749E-002
 0.499999999998723E-002
 0.499999999998697E-002
 0.100000000000000E-001
 0.100000000000000E-001
 0.100000000000000E-001
 0.100000000000000E-001
 0.100000000000000E-001
 0.100000000000000E-001
 0.100000000000000E-001
 0.100000000000000E-001
 0.100000000000000E-001
 0.100000000000000E-001
 0.100000000000000E-001
 0.100000000000000E-001
 0.100000000000000E-001
 0.100000000000000E-001
 0.100000000000000E-001
 0.100000000000000E-001
 0.100000000000000E-001
 0.100000000000000E-001
 0.100000000000000E-001
 0.100000000000000E-001
 0.100000000000000E-001
 0.100000000000000E-001
 0.100000000000000E-001
 0.100000000000000E-001
 0.100000000000000E-001
 0.100000000000000E-001
 0.100000000000000E-001
 0.100000000000000E-001
 0.100000000000000E-001
 0.100000000000000E-001
 0.100000000000000E-001
 0.100000000000000E-001
 0.100000000000000E-001
 0.100000000000000E-001
 0.100000000000000E-001
 0.100000000000000E-001
 0.100000000000000E-001
 0.100000000000000E-001
 0.100000000000000E-001
 0.100000000000000E-001
 0.100000000000000E-001
 0.100000000000000E-001
 0.100000000000000E-001
 0.100000000000000E-001
 0.100000000000000E-001
 0.100000000000000E-001
 0.100000000000000E-001
 0.100000000000000E-001
 0.100000000000000E-001
 0.100000000000000E-001
 0.100000000000000E-001
 0.100000000000000E-001
 0.100000000000000E-001
 0.100000000000000E-001
 0.100000000000000E-001
 0.100000000000000E-001
 0.100000000000000E-001
 0.100000000000000E-001
 0.100000000000000E-001
 0.100000000000000E-001
 0.100000000000000E-001
 0.100000000000000E-001
 0.100000000000000E-001
 0.100000000000000E-001
 0.100000000000000E-001
 0.100000000000000E-001
 0.100000000000000E-001
 0.100000000000000E-001
 0.100000000000000E-001
 0.100000000000000E-001
 0.100000000000000E-001
 0.100000000000000E-001
 0.100000000000000E-001
 0.100000000000000E-001
 0.100000000000000E-001
 0.100000000000000E-001
 0.100000000000000E-001
 0.100000000000000E-001
 0.100000000000000E-001
 0.100000000000000E-001
 0.100000000000000E-001
 0.100000000000000E-001
 0.100000000000000E-001
 0.100000000000000E-001
 0.100000000000000E-001
 0.100000000000000E-001
 0.100000000000000E-001
 0.100000000000000E-001
 0.100000000000000E-001
 0.100000000000000E-001
 0.100000000000000E-001
 0.100000000000000E-001
 0.100000000000000E-001
 0.100000000000000E-001
 0.100000000000000E-001
 0.100000000000000E-001
 0.100000000000000E-001
 0.100000000000000E-001
 0.100000000000000E-001
 0.100000000000000E-001
 0.100000000000000E-001
 0.000000000000000E+000
 0.000000000000000E+000
 0.000000000000000E+000
 0.000000000000000E+000
 0.000000000000000E+000
 0.000000000000000E+000
 0.000000000000000E+000
 0.000000000000000E+000
 0.000000000000000E+000
 0.000000000000000E+000
 0.000000000000000E+000
 0.000000000000000E+000
 0.000000000000000E+000
 0.000000000000000E+000
 0.000000000000000E+000
 0.000000000000000E+000
 0.000000000000000E+000
 0.000000000000000E+000
 0.000000000000000E+000
 0.000000000000000E+000
 0.000000000000000E+000
 0.000000000000000E+000
 0.000000000000000E+000
 0.000000000000000E+000
 0.000000000000000E+000
 0.000000000000000E+000
 0.000000000000000E+000
 0.000000000000000E+000
 0.000000000000000E+000
 0.000000000000000E+000
 0.000000000000000E+000
 0.000000000000000E+000
 0.000000000000000E+000
 0.000000000000000E+000
 0.000000000000000E+000
 0.000000000000000E+000
 0.000000000000000E+000
 0.000000000000000E+000
 0.000000000000000E+000
 0.000000000000000E+000
 0.000000000000000E+000
 0.000000000000000E+000
 0.000000000000000E+000
 0.000000000000000E+000
 0.000000000000000E+000
 0.000000000000000E+000
 0.000000000000000E+000
 0.000000000000000E+000
 0.000000000000000E+000
 0.000000000000000E+000
 0.000000000000000E+000
 0.000000000000000E+000
 0.000000000000000E+000
 0.000000000000000E+000
 0.000000000000000E+000
 0.000000000000000E+000
 0.000000000000000E+000
 0.000000000000000E+000
 0.000000000000000E+000
 0.000000000000000E+000
 0.000000000000000E+000
 0.000000000000000E+000
 0.000000000000000E+000
 0.000000000000000E+000
 0.000000000000000E+000
 0.000000000000000E+000
 0.000000000000000E+000
 0.000000000000000E+000
 0.000000000000000E+000
 0.000000000000000E+000
 0.000000000000000E+000
 0.000000000000000E+000
 0.000000000000000E+000
 0.000000000000000E+000
 0.000000000000000E+000
 0.000000000000000E+000
 0.000000000000000E+000
 0.000000000000000E+000
 0.000000000000000E+000
 0.000000000000000E+000
 0.000000000000000E+000
 0.000000000000000E+000
 0.000000000000000E+000
 0.000000000000000E+000
 0.000000000000000E+000
 0.000000000000000E+000
 0.000000000000000E+000
 0.000000000000000E+000
 0.000000000000000E+000
 0.000000000000000E+000
 0.000000000000000E+000
 0.000000000000000E+000
 0.000000000000000E+000
 0.000000000000000E+000
 0.000000000000000E+000
 0.000000000000000E+000
 0.000000000000000E+000
 0.000000000000000E+000
 0.000000000000000E+000
 0.000000000000000E+000
 0.000000000000000E+000
 0.500000000001322E-002
 0.500000000001296E-002
 0.500000000001270E-002
 0.500000000001243E-002
 0.500000000001217E-002
 0.500000000001191E-002
 0.500000000001165E-002
 0.500000000001138E-002
 0.500000000001112E-002
 0.500000000001086E-002
 0.500000000001060E-002
 0.500000000001033E-002
 0.500000000001007E-002
 0.500000000000981E-002
 0.500000000000955E-002
 0.500000000000928E-002
 0.500000000000902E-002
 0.500000000000876E-002
 0.500000000000850E-002
 0.500000000000823E-002
 0.500000000000797E-002
 0.500000000000771E-002
 0.500000000000744E-002
 0.500000000000718E-002
 0.500000000000692E-002
 0.500000000000666E-002
 0.500000000000640E-002
 0.500000000000613E-002
 0.500000000000587E-002
 0.500000000000561E-002
 0.500000000000534E-002
 0.500000000000508E-002
 0.500000000000482E-002
 0.500000000000456E-002
 0.500000000000429E-002
 0.500000000000403E-002
 0.500000000000377E-002
 0.500000000000351E-002
 0.500000000000324E-002
 0.500000000000298E-002
 0.500000000000272E-002
 0.500000000000246E-002
 0.500000000000220E-002
 0.500000000000193E-002
 0.500000000000167E-002
 0.500000000000141E-002
 0.500000000000114E-002
 0.500000000000088E-002
 0.500000000000062E-002
 0.500000000000036E-002
 0.500000000000009E-002
 0.499999999999983E-002
 0.499999999999957E-002
 0.499999999999931E-002
 0.499999999999904E-002
 0.499999999999878E-002
 0.499999999999852E-002
 0.499999999999826E-002
 0.499999999999799E-002
 0.499999999999773E-002
 0.499999999999747E-002
 0.499999999999721E-002
 0.499999999999694E-002
 0.499999999999668E-002
 0.499999999999642E-002
 0.499999999999616E-002
 0.499999999999589E-002
 0.499999999999563E-002
 0.499999999999537E-002
 0.499999999999510E-002
 0.499999999999484E-002
 0.499999999999458E-002
 0.499999999999432E-002
 0.499999999999405E-002
 0.499999999999379E-002
 0.499999999999353E-002
 0.499999999999327E-002
 0.499999999999300E-002
 0.499999999999274E-002
 0.499999999999248E-002
 0.499999999999222E-002
 0.499999999999195E-002
 0.499999999999169E-002
 0.499999999999143E-002
 0.499999999999117E-002
 0.499999999999090E-002
 0.499999999999064E-002
 0.499999999999038E-002
 0.499999999999012E-002
 0.499999999998985E-002
 0.499999999998959E-002
 0.499999999998933E-002
 0.499999999998907E-002
 0.499999999998880E-002
 0.499999999998854E-002
 0.499999999998828E-002
 0.499999999998801E-002
 0.499999999998775E-002
 0.499999999998749E-002
 0.499999999998723E-002
 0.499999999998697E-002
 0.100000000000000E-001
 0.100000000000000E-001
 0.100000000000000E-001
 0.100000000000000E-001
 0.100000000000000E-001
 0.100000000000000E-001
 0.100000000000000E-001
 0.100000000000000E-001
 0.100000000000000E-001
 0.100000000000000E-001
 0.100000000000000E-001
 0.100000000000000E-001
 0.100000000000000E-001
 0.100000000000000E-001
 0.100000000000000E-001
 0.100000000000000E-001
 0.100000000000000E-001
 0.100000000000000E-001
 0.100000000000000E-001
 0.100000000000000E-001
 0.100000000000000E-001
 0.100000000000000E-001
 0.100000000000000E-001
 0.100000000000000E-001
 0.100000000000000E-001
 0.100000000000000E-001
 0.100000000000000E-001
 0.100000000000000E-001
 0.100000000000000E-001
 0.100000000000000E-001
 0.100000000000000E-001
 0.100000000000000E-001
 0.100000000000000E-001
 0.100000000000000E-001
 0.100000000000000E-001
 0.100000000000000E-001
 0.100000000000000E-001
 0.100000000000000E-001
 0.100000000000000E-001
 0.100000000000000E-001
 0.100000000000000E-001
 0.100000000000000E-001
 0.100000000000000E-001
 0.100000000000000E-001
 0.100000000000000E-001
 0.100000000000000E-001
 0.100000000000000E-001
 0.100000000000000E-001
 0.100000000000000E-001
 0.100000000000000E-001
 0.100000000000000E-001
 0.100000000000000E-001
 0.100000000000000E-001
 0.100000000000000E-001
 0.100000000000000E-001
 0.100000000000000E-001
 0.100000000000000E-001
 0.100000000000000E-001
 0.100000000000000E-001
 0.100000000000000E-001
 0.100000000000000E-001
 0.100000000000000E-001
 0.100000000000000E-001
 0.100000000000000E-001
 0.100000000000000E-001
 0.100000000000000E-001
 0.100000000000000E-001
 0.100000000000000E-001
 0.100000000000000E-001
 0.100000000000000E-001
 0.100000000000000E-001
 0.100000000000000E-001
 0.100000000000000E-001
 0.100000000000000E-001
 0.100000000000000E-001
 0.100000000000000E-001
 0.100000000000000E-001
 0.100000000000000E-001
 0.100000000000000E-001
 0.100000000000000E-001
 0.100000000000000E-001
 0.100000000000000E-001
 0.100000000000000E-001
 0.100000000000000E-001
 0.100000000000000E-001
 0.100000000000000E-001
 0.100000000000000E-001
 0.100000000000000E-001
 0.100000000000000E-001
 0.100000000000000E-001
 0.100000000000000E-001
 0.100000000000000E-001
 0.100000000000000E-001
 0.100000000000000E-001
 0.100000000000000E-001
 0.100000000000000E-001
 0.100000000000000E-001
 0.100000000000000E-001
 0.100000000000000E-001
 0.100000000000000E-001
 0.100000000000000E-001
-0.500000000000000E-002
-0.500000000000000E-002
-0.500000000000000E-002
-0.500000000000000E-002
-0.500000000000000E-002
-0.500000000000000E-002
-0.500000000000000E-002
-0.500000000000000E-002
-0.500000000000000E-002
-0.500000000000000E-002
-0.500000000000000E-002
-0.500000000000000E-002
-0.500000000000000E-002
-0.500000000000000E-002
-0.500000000000000E-002
-0.500000000000000E-002
-0.500000000000000E-002
-0.500000000000000E-002
-0.500000000000000E-002
-0.500000000000000E-002
-0.500000000000000E-002
-0.500000000000000E-002
-0.500000000000000E-002
-0.500000000000000E-002
-0.500000000000000E-002
-0.500000000000000E-002
-0.500000000000000E-002
-0.500000000000000E-002
-0.500000000000000E-002