 VARIABLES ="x" "y" "z" "Tw" "qw"
 ZONE  T = B1F1, I=1, J=3, K=2, DATAPACKING=BLOCK, VARLOCATION=([1-3]=NODAL,[4-5]=CELLCENTERED), SOLUTIONTIME=0.565070000000000E+005, STRANDID = 0
 0.000000000000000E+000
 0.000000000000000E+000
 0.000000000000000E+000
 0.000000000000000E+000
 0.000000000000000E+000
 0.000000000000000E+000
 0.000000000000000E+000
 0.500000000001322E-002
 0.100000000000000E-001
 0.000000000000000E+000
 0.500000000001322E-002
 0.100000000000000E-001
-0.500000000000000E-002
-0.500000000000000E-002
-0.500000000000000E-002
 0.500000000000000E-002
 0.500000000000000E-002
 0.500000000000000E-002
 0.100000000000000E+004
 0.100000000000000E+004
-0.405772416061698E+005
-0.405772416061664E+005
 ZONE  T = B1F2, I=1, J=3, K=2, DATAPACKING=BLOCK, VARLOCATION=([1-3]=NODAL,[4-5]=CELLCENTERED), SOLUTIONTIME=0.565070000000000E+005, STRANDID = 0
 0.100000000000000E+000
 0.100000000000000E+000
 0.100000000000000E+000
 0.100000000000000E+000
 0.100000000000000E+000
 0.100000000000000E+000
 0.000000000000000E+000
 0.499999999998697E-002
 0.100000000000000E-001
 0.000000000000000E+000
 0.499999999998697E-002
 0.100000000000000E-001
-0.500000000000000E-002
-0.500000000000000E-002
-0.500000000000000E-002
 0.500000000000000E-002
 0.500000000000000E-002
 0.500000000000000E-002
 0.926970748549053E+003
 0.926970748549052E+003
-0.405772453140100E+005
-0.405772453140100E+005
