 VARIABLES ="x" "y" "z"  "T" "matID" "qvol" "k" "rho" "cs" "h"
 ZONE  T = Block1, I=61, J=41, K=2, DATAPACKING=BLOCK, VARLOCATION=([1-3]=NODAL,[4-10]=CELLCENTERED), SOLUTIONTIME=0.489400000000000E+004, STRANDID = 0
 0.000000000000000E+000
 0.999999999998132E-002
 0.199999999999619E-001
 0.299999999999400E-001
 0.399999999999205E-001
 0.499999999999049E-001
 0.599999999998898E-001
 0.699999999998725E-001
 0.799999999998518E-001
 0.899999999998227E-001
 0.999999999997935E-001
 0.109999999999766E+000
 0.119999999999741E+000
 0.129999999999712E+000
 0.139999999999682E+000
 0.149999999999653E+000
 0.159999999999624E+000
 0.169999999999595E+000
 0.179999999999566E+000
 0.189999999999537E+000
 0.199999999999508E+000
 0.209999999999478E+000
 0.219999999999449E+000
 0.229999999999431E+000
 0.239999999999402E+000
 0.249999999999373E+000
 0.259999999999344E+000
 0.269999999999315E+000
 0.279999999999285E+000
 0.289999999999256E+000
 0.299999999999238E+000
 0.309999999999255E+000
 0.319999999999275E+000
 0.329999999999311E+000
 0.339999999999328E+000
 0.349999999999363E+000
 0.359999999999384E+000
 0.369999999999411E+000
 0.379999999999440E+000
 0.389999999999459E+000
 0.399999999999496E+000
 0.409999999999513E+000
 0.419999999999547E+000
 0.429999999999569E+000
 0.439999999999595E+000
 0.449999999999624E+000
 0.459999999999654E+000
 0.469999999999680E+000
 0.479999999999702E+000
 0.489999999999736E+000
 0.499999999999746E+000
 0.509999999999760E+000
 0.519999999999797E+000
 0.529999999999815E+000
 0.539999999999837E+000
 0.549999999999871E+000
 0.559999999999888E+000
 0.569999999999927E+000
 0.579999999999944E+000
 0.589999999999980E+000
 0.600000000000000E+000
 0.000000000000000E+000
 0.999999999998230E-002
 0.199999999999643E-001
 0.299999999999433E-001
 0.399999999999253E-001
 0.499999999999106E-001
 0.599999999998967E-001
 0.699999999998803E-001
 0.799999999998606E-001
 0.899999999998331E-001
 0.999999999998051E-001
 0.109999999999778E+000
 0.119999999999755E+000
 0.129999999999727E+000
 0.139999999999699E+000
 0.149999999999671E+000
 0.159999999999644E+000
 0.169999999999616E+000
 0.179999999999588E+000
 0.189999999999561E+000
 0.199999999999533E+000
 0.209999999999505E+000
 0.219999999999477E+000
 0.229999999999460E+000
 0.239999999999432E+000
 0.249999999999405E+000
 0.259999999999377E+000
 0.269999999999349E+000
 0.279999999999322E+000
 0.289999999999294E+000
 0.299999999999276E+000
 0.309999999999293E+000
 0.319999999999311E+000
 0.329999999999345E+000
 0.339999999999361E+000
 0.349999999999395E+000
 0.359999999999414E+000
 0.369999999999440E+000
 0.379999999999468E+000
 0.389999999999486E+000
 0.399999999999521E+000
 0.409999999999537E+000
 0.419999999999570E+000
 0.429999999999590E+000
 0.439999999999615E+000
 0.449999999999643E+000
 0.459999999999671E+000
 0.469999999999696E+000
 0.479999999999716E+000
 0.489999999999749E+000
 0.499999999999758E+000
 0.509999999999769E+000
 0.519999999999805E+000
 0.529999999999822E+000
 0.539999999999842E+000
 0.549999999999875E+000
 0.559999999999892E+000
 0.569999999999929E+000
 0.579999999999946E+000
 0.589999999999981E+000
 0.600000000000000E+000
 0.000000000000000E+000
 0.999999999998327E-002
 0.199999999999666E-001
 0.299999999999466E-001
 0.399999999999301E-001
 0.499999999999162E-001
 0.599999999999035E-001
 0.699999999998882E-001
 0.799999999998695E-001
 0.899999999998437E-001
 0.999999999998166E-001
 0.109999999999791E+000
 0.119999999999769E+000
 0.129999999999742E+000
 0.139999999999716E+000
 0.149999999999689E+000
 0.159999999999663E+000
 0.169999999999637E+000
 0.179999999999610E+000
 0.189999999999585E+000
 0.199999999999558E+000
 0.209999999999532E+000
 0.219999999999505E+000
 0.229999999999489E+000
 0.239999999999463E+000
 0.249999999999436E+000
 0.259999999999410E+000
 0.269999999999384E+000
 0.279999999999358E+000
 0.289999999999331E+000
 0.299999999999315E+000
 0.309999999999330E+000
 0.319999999999347E+000
 0.329999999999380E+000
 0.339999999999395E+000
 0.349999999999427E+000
 0.359999999999445E+000
 0.369999999999469E+000
 0.379999999999496E+000
 0.389999999999513E+000
 0.399999999999547E+000
 0.409999999999561E+000
 0.419999999999593E+000
 0.429999999999612E+000
 0.439999999999635E+000
 0.449999999999662E+000
 0.459999999999688E+000
 0.469999999999712E+000
 0.479999999999731E+000
 0.489999999999762E+000
 0.499999999999770E+000
 0.509999999999779E+000
 0.519999999999813E+000
 0.529999999999829E+000
 0.539999999999848E+000
 0.549999999999880E+000
 0.559999999999897E+000
 0.569999999999932E+000
 0.579999999999948E+000
 0.589999999999981E+000
 0.600000000000000E+000
 0.000000000000000E+000
 0.999999999998425E-002
 0.199999999999690E-001
 0.299999999999500E-001
 0.399999999999350E-001
 0.499999999999218E-001
 0.599999999999104E-001
 0.699999999998960E-001
 0.799999999998783E-001
 0.899999999998542E-001
 0.999999999998282E-001
 0.109999999999803E+000
 0.119999999999783E+000
 0.129999999999757E+000
 0.139999999999732E+000
 0.149999999999708E+000
 0.159999999999683E+000
 0.169999999999658E+000
 0.179999999999633E+000
 0.189999999999608E+000
 0.199999999999583E+000
 0.209999999999559E+000
 0.219999999999533E+000
 0.229999999999518E+000
 0.239999999999494E+000
 0.249999999999468E+000
 0.259999999999444E+000
 0.269999999999418E+000
 0.279999999999394E+000
 0.289999999999369E+000
 0.299999999999353E+000
 0.309999999999367E+000
 0.319999999999384E+000
 0.329999999999415E+000
 0.339999999999428E+000
 0.349999999999459E+000
 0.359999999999476E+000
 0.369999999999499E+000
 0.379999999999525E+000
 0.389999999999540E+000
 0.399999999999572E+000
 0.409999999999585E+000
 0.419999999999615E+000
 0.429999999999633E+000
 0.439999999999655E+000
 0.449999999999680E+000
 0.459999999999705E+000
 0.469999999999728E+000
 0.479999999999745E+000
 0.489999999999775E+000
 0.499999999999782E+000
 0.509999999999789E+000
 0.519999999999821E+000
 0.529999999999836E+000
 0.539999999999854E+000
 0.549999999999884E+000
 0.559999999999900E+000
 0.569999999999934E+000
 0.579999999999951E+000
 0.589999999999982E+000
 0.600000000000000E+000
 0.000000000000000E+000
 0.999999999998523E-002
 0.199999999999713E-001
 0.299999999999533E-001
 0.399999999999398E-001
 0.499999999999274E-001
 0.599999999999173E-001
 0.699999999999039E-001
 0.799999999998872E-001
 0.899999999998647E-001
 0.999999999998398E-001
 0.109999999999816E+000
 0.119999999999797E+000
 0.129999999999773E+000
 0.139999999999749E+000
 0.149999999999726E+000
 0.159999999999702E+000
 0.169999999999679E+000
 0.179999999999655E+000
 0.189999999999632E+000
 0.199999999999608E+000
 0.209999999999585E+000
 0.219999999999561E+000
 0.229999999999548E+000
 0.239999999999524E+000
 0.249999999999500E+000
 0.259999999999477E+000
 0.269999999999453E+000
 0.279999999999430E+000
 0.289999999999406E+000
 0.299999999999391E+000
 0.309999999999405E+000
 0.319999999999420E+000
 0.329999999999449E+000
 0.339999999999462E+000
 0.349999999999491E+000
 0.359999999999506E+000
 0.369999999999528E+000
 0.379999999999553E+000
 0.389999999999567E+000
 0.399999999999598E+000
 0.409999999999610E+000
 0.419999999999638E+000
 0.429999999999654E+000
 0.439999999999675E+000
 0.449999999999699E+000
 0.459999999999722E+000
 0.469999999999743E+000
 0.479999999999760E+000
 0.489999999999788E+000
 0.499999999999794E+000
 0.509999999999799E+000
 0.519999999999829E+000
 0.529999999999843E+000
 0.539999999999860E+000
 0.549999999999888E+000
 0.559999999999904E+000
 0.569999999999937E+000
 0.579999999999953E+000
 0.589999999999983E+000
 0.600000000000000E+000
 0.000000000000000E+000
 0.999999999998620E-002
 0.199999999999737E-001
 0.299999999999567E-001
 0.399999999999446E-001
 0.499999999999331E-001
 0.599999999999242E-001
 0.699999999999117E-001
 0.799999999998960E-001
 0.899999999998752E-001
 0.999999999998514E-001
 0.109999999999828E+000
 0.119999999999811E+000
 0.129999999999788E+000
 0.139999999999766E+000
 0.149999999999744E+000
 0.159999999999722E+000
 0.169999999999700E+000
 0.179999999999677E+000
 0.189999999999656E+000
 0.199999999999633E+000
 0.209999999999612E+000
 0.219999999999589E+000
 0.229999999999576E+000
 0.239999999999554E+000
 0.249999999999532E+000
 0.259999999999511E+000
 0.269999999999487E+000
 0.279999999999466E+000
 0.289999999999443E+000
 0.299999999999430E+000
 0.309999999999442E+000
 0.319999999999456E+000
 0.329999999999484E+000
 0.339999999999495E+000
 0.349999999999522E+000
 0.359999999999537E+000
 0.369999999999557E+000
 0.379999999999581E+000
 0.389999999999594E+000
 0.399999999999623E+000
 0.409999999999634E+000
 0.419999999999661E+000
 0.429999999999676E+000
 0.439999999999696E+000
 0.449999999999718E+000
 0.459999999999740E+000
 0.469999999999759E+000
 0.479999999999774E+000
 0.489999999999801E+000
 0.499999999999806E+000
 0.509999999999809E+000
 0.519999999999837E+000
 0.529999999999850E+000
 0.539999999999865E+000
 0.549999999999893E+000
 0.559999999999909E+000
 0.569999999999939E+000
 0.579999999999955E+000
 0.589999999999983E+000
 0.600000000000000E+000
 0.000000000000000E+000
 0.999999999998717E-002
 0.199999999999761E-001
 0.299999999999600E-001
 0.399999999999494E-001
 0.499999999999387E-001
 0.599999999999311E-001
 0.699999999999196E-001
 0.799999999999048E-001
 0.899999999998857E-001
 0.999999999998629E-001
 0.109999999999841E+000
 0.119999999999825E+000
 0.129999999999803E+000
 0.139999999999782E+000
 0.149999999999762E+000
 0.159999999999742E+000
 0.169999999999721E+000
 0.179999999999700E+000
 0.189999999999680E+000
 0.199999999999658E+000
 0.209999999999639E+000
 0.219999999999617E+000
 0.229999999999606E+000
 0.239999999999585E+000
 0.249999999999563E+000
 0.259999999999544E+000
 0.269999999999522E+000
 0.279999999999502E+000
 0.289999999999481E+000
 0.299999999999468E+000
 0.309999999999480E+000
 0.319999999999492E+000
 0.329999999999519E+000
 0.339999999999529E+000
 0.349999999999554E+000
 0.359999999999567E+000
 0.369999999999586E+000
 0.379999999999610E+000
 0.389999999999621E+000
 0.399999999999648E+000
 0.409999999999658E+000
 0.419999999999683E+000
 0.429999999999697E+000
 0.439999999999715E+000
 0.449999999999736E+000
 0.459999999999757E+000
 0.469999999999775E+000
 0.479999999999789E+000
 0.489999999999813E+000
 0.499999999999818E+000
 0.509999999999819E+000
 0.519999999999846E+000
 0.529999999999857E+000
 0.539999999999871E+000
 0.549999999999897E+000
 0.559999999999913E+000
 0.569999999999941E+000
 0.579999999999957E+000
 0.589999999999984E+000
 0.600000000000000E+000
 0.000000000000000E+000
 0.999999999998815E-002
 0.199999999999785E-001
 0.299999999999634E-001
 0.399999999999542E-001
 0.499999999999443E-001
 0.599999999999379E-001
 0.699999999999274E-001
 0.799999999999136E-001
 0.899999999998962E-001
 0.999999999998745E-001
 0.109999999999853E+000
 0.119999999999839E+000
 0.129999999999819E+000
 0.139999999999799E+000
 0.149999999999780E+000
 0.159999999999761E+000
 0.169999999999742E+000
 0.179999999999722E+000
 0.189999999999704E+000
 0.199999999999683E+000
 0.209999999999665E+000
 0.219999999999645E+000
 0.229999999999635E+000
 0.239999999999615E+000
 0.249999999999595E+000
 0.259999999999577E+000
 0.269999999999556E+000
 0.279999999999539E+000
 0.289999999999518E+000
 0.299999999999506E+000
 0.309999999999517E+000
 0.319999999999528E+000
 0.329999999999553E+000
 0.339999999999562E+000
 0.349999999999586E+000
 0.359999999999598E+000
 0.369999999999615E+000
 0.379999999999638E+000
 0.389999999999649E+000
 0.399999999999674E+000
 0.409999999999683E+000
 0.419999999999706E+000
 0.429999999999719E+000
 0.439999999999735E+000
 0.449999999999755E+000
 0.459999999999774E+000
 0.469999999999791E+000
 0.479999999999803E+000
 0.489999999999827E+000
 0.499999999999830E+000
 0.509999999999829E+000
 0.519999999999854E+000
 0.529999999999864E+000
 0.539999999999877E+000
 0.549999999999901E+000
 0.559999999999917E+000
 0.569999999999944E+000
 0.579999999999959E+000
 0.589999999999985E+000
 0.600000000000000E+000
 0.000000000000000E+000
 0.999999999998912E-002
 0.199999999999808E-001
 0.299999999999667E-001
 0.399999999999590E-001
 0.499999999999500E-001
 0.599999999999448E-001
 0.699999999999353E-001
 0.799999999999225E-001
 0.899999999999067E-001
 0.999999999998861E-001
 0.109999999999866E+000
 0.119999999999853E+000
 0.129999999999834E+000
 0.139999999999816E+000
 0.149999999999798E+000
 0.159999999999781E+000
 0.169999999999763E+000
 0.179999999999744E+000
 0.189999999999728E+000
 0.199999999999708E+000
 0.209999999999692E+000
 0.219999999999673E+000
 0.229999999999664E+000
 0.239999999999646E+000
 0.249999999999627E+000
 0.259999999999611E+000
 0.269999999999591E+000
 0.279999999999575E+000
 0.289999999999556E+000
 0.299999999999545E+000
 0.309999999999555E+000
 0.319999999999565E+000
 0.329999999999588E+000
 0.339999999999596E+000
 0.349999999999618E+000
 0.359999999999629E+000
 0.369999999999645E+000
 0.379999999999666E+000
 0.389999999999676E+000
 0.399999999999699E+000
 0.409999999999707E+000
 0.419999999999729E+000
 0.429999999999740E+000
 0.439999999999755E+000
 0.449999999999773E+000
 0.459999999999791E+000
 0.469999999999806E+000
 0.479999999999818E+000
 0.489999999999839E+000
 0.499999999999842E+000
 0.509999999999839E+000
 0.519999999999862E+000
 0.529999999999871E+000
 0.539999999999882E+000
 0.549999999999906E+000
 0.559999999999921E+000
 0.569999999999946E+000
 0.579999999999961E+000
 0.589999999999985E+000
 0.600000000000000E+000
 0.000000000000000E+000
 0.999999999999010E-002
 0.199999999999832E-001
 0.299999999999701E-001
 0.399999999999638E-001
 0.499999999999556E-001
 0.599999999999517E-001
 0.699999999999431E-001
 0.799999999999313E-001
 0.899999999999172E-001
 0.999999999998977E-001
 0.109999999999878E+000
 0.119999999999867E+000
 0.129999999999849E+000
 0.139999999999833E+000
 0.149999999999817E+000
 0.159999999999801E+000
 0.169999999999784E+000
 0.179999999999767E+000
 0.189999999999752E+000
 0.199999999999733E+000
 0.209999999999719E+000
 0.219999999999701E+000
 0.229999999999693E+000
 0.239999999999676E+000
 0.249999999999659E+000
 0.259999999999644E+000
 0.269999999999625E+000
 0.279999999999611E+000
 0.289999999999593E+000
 0.299999999999583E+000
 0.309999999999592E+000
 0.319999999999601E+000
 0.329999999999622E+000
 0.339999999999629E+000
 0.349999999999650E+000
 0.359999999999659E+000
 0.369999999999674E+000
 0.379999999999694E+000
 0.389999999999703E+000
 0.399999999999725E+000
 0.409999999999731E+000
 0.419999999999752E+000
 0.429999999999762E+000
 0.439999999999776E+000
 0.449999999999792E+000
 0.459999999999808E+000
 0.469999999999822E+000
 0.479999999999832E+000
 0.489999999999852E+000
 0.499999999999854E+000
 0.509999999999849E+000
 0.519999999999870E+000
 0.529999999999878E+000
 0.539999999999888E+000
 0.549999999999910E+000
 0.559999999999925E+000
 0.569999999999949E+000
 0.579999999999964E+000
 0.589999999999986E+000
 0.600000000000000E+000
 0.000000000000000E+000
 0.999999999999107E-002
 0.199999999999856E-001
 0.299999999999734E-001
 0.399999999999686E-001
 0.499999999999612E-001
 0.599999999999585E-001
 0.699999999999510E-001
 0.799999999999402E-001
 0.899999999999277E-001
 0.999999999999092E-001
 0.109999999999891E+000
 0.119999999999881E+000
 0.129999999999864E+000
 0.139999999999849E+000
 0.149999999999835E+000
 0.159999999999820E+000
 0.169999999999805E+000
 0.179999999999789E+000
 0.189999999999776E+000
 0.199999999999758E+000
 0.209999999999746E+000
 0.219999999999728E+000
 0.229999999999722E+000
 0.239999999999707E+000
 0.249999999999690E+000
 0.259999999999677E+000
 0.269999999999660E+000
 0.279999999999647E+000
 0.289999999999630E+000
 0.299999999999621E+000
 0.309999999999629E+000
 0.319999999999637E+000
 0.329999999999657E+000
 0.339999999999663E+000
 0.349999999999682E+000
 0.359999999999690E+000
 0.369999999999703E+000
 0.379999999999723E+000
 0.389999999999730E+000
 0.399999999999750E+000
 0.409999999999756E+000
 0.419999999999774E+000
 0.429999999999783E+000
 0.439999999999796E+000
 0.449999999999810E+000
 0.459999999999825E+000
 0.469999999999838E+000
 0.479999999999847E+000
 0.489999999999865E+000
 0.499999999999865E+000
 0.509999999999859E+000
 0.519999999999878E+000
 0.529999999999885E+000
 0.539999999999894E+000
 0.549999999999914E+000
 0.559999999999929E+000
 0.569999999999951E+000
 0.579999999999966E+000
 0.589999999999987E+000
 0.600000000000000E+000
 0.000000000000000E+000
 0.999999999999205E-002
 0.199999999999879E-001
 0.299999999999768E-001
 0.399999999999734E-001
 0.499999999999669E-001
 0.599999999999654E-001
 0.699999999999588E-001
 0.799999999999490E-001
 0.899999999999382E-001
 0.999999999999208E-001
 0.109999999999903E+000
 0.119999999999895E+000
 0.129999999999880E+000
 0.139999999999866E+000
 0.149999999999853E+000
 0.159999999999840E+000
 0.169999999999826E+000
 0.179999999999811E+000
 0.189999999999799E+000
 0.199999999999783E+000
 0.209999999999772E+000
 0.219999999999756E+000
 0.229999999999751E+000
 0.239999999999738E+000
 0.249999999999722E+000
 0.259999999999711E+000
 0.269999999999695E+000
 0.279999999999683E+000
 0.289999999999668E+000
 0.299999999999659E+000
 0.309999999999667E+000
 0.319999999999673E+000
 0.329999999999691E+000
 0.339999999999696E+000
 0.349999999999713E+000
 0.359999999999720E+000
 0.369999999999732E+000
 0.379999999999751E+000
 0.389999999999757E+000
 0.399999999999775E+000
 0.409999999999780E+000
 0.419999999999797E+000
 0.429999999999804E+000
 0.439999999999816E+000
 0.449999999999829E+000
 0.459999999999842E+000
 0.469999999999854E+000
 0.479999999999861E+000
 0.489999999999878E+000
 0.499999999999877E+000
 0.509999999999869E+000
 0.519999999999887E+000
 0.529999999999892E+000
 0.539999999999900E+000
 0.549999999999919E+000
 0.559999999999933E+000
 0.569999999999953E+000
 0.579999999999968E+000
 0.589999999999988E+000
 0.600000000000000E+000
 0.000000000000000E+000
 0.999999999999302E-002
 0.199999999999903E-001
 0.299999999999801E-001
 0.399999999999782E-001
 0.499999999999725E-001
 0.599999999999723E-001
 0.699999999999667E-001
 0.799999999999579E-001
 0.899999999999487E-001
 0.999999999999324E-001
 0.109999999999916E+000
 0.119999999999909E+000
 0.129999999999895E+000
 0.139999999999883E+000
 0.149999999999871E+000
 0.159999999999860E+000
 0.169999999999847E+000
 0.179999999999833E+000
 0.189999999999823E+000
 0.199999999999808E+000
 0.209999999999799E+000
 0.219999999999784E+000
 0.229999999999780E+000
 0.239999999999768E+000
 0.249999999999754E+000
 0.259999999999744E+000
 0.269999999999729E+000
 0.279999999999720E+000
 0.289999999999705E+000
 0.299999999999698E+000
 0.309999999999704E+000
 0.319999999999710E+000
 0.329999999999726E+000
 0.339999999999729E+000
 0.349999999999745E+000
 0.359999999999751E+000
 0.369999999999761E+000
 0.379999999999779E+000
 0.389999999999784E+000
 0.399999999999801E+000
 0.409999999999804E+000
 0.419999999999820E+000
 0.429999999999826E+000
 0.439999999999836E+000
 0.449999999999848E+000
 0.459999999999860E+000
 0.469999999999869E+000
 0.479999999999876E+000
 0.489999999999891E+000
 0.499999999999889E+000
 0.509999999999878E+000
 0.519999999999895E+000
 0.529999999999899E+000
 0.539999999999905E+000
 0.549999999999923E+000
 0.559999999999937E+000
 0.569999999999955E+000
 0.579999999999970E+000
 0.589999999999988E+000
 0.600000000000000E+000
 0.000000000000000E+000
 0.999999999999400E-002
 0.199999999999926E-001
 0.299999999999834E-001
 0.399999999999830E-001
 0.499999999999781E-001
 0.599999999999792E-001
 0.699999999999746E-001
 0.799999999999667E-001
 0.899999999999593E-001
 0.999999999999440E-001
 0.109999999999929E+000
 0.119999999999923E+000
 0.129999999999910E+000
 0.139999999999899E+000
 0.149999999999889E+000
 0.159999999999879E+000
 0.169999999999868E+000
 0.179999999999856E+000
 0.189999999999847E+000
 0.199999999999833E+000
 0.209999999999826E+000
 0.219999999999812E+000
 0.229999999999809E+000
 0.239999999999799E+000
 0.249999999999786E+000
 0.259999999999778E+000
 0.269999999999764E+000
 0.279999999999756E+000
 0.289999999999743E+000
 0.299999999999736E+000
 0.309999999999742E+000
 0.319999999999746E+000
 0.329999999999760E+000
 0.339999999999762E+000
 0.349999999999777E+000
 0.359999999999781E+000
 0.369999999999790E+000
 0.379999999999807E+000
 0.389999999999811E+000
 0.399999999999826E+000
 0.409999999999829E+000
 0.419999999999842E+000
 0.429999999999847E+000
 0.439999999999856E+000
 0.449999999999866E+000
 0.459999999999877E+000
 0.469999999999885E+000
 0.479999999999890E+000
 0.489999999999904E+000
 0.499999999999901E+000
 0.509999999999888E+000
 0.519999999999903E+000
 0.529999999999906E+000
 0.539999999999911E+000
 0.549999999999927E+000
 0.559999999999941E+000
 0.569999999999958E+000
 0.579999999999972E+000
 0.589999999999989E+000
 0.600000000000000E+000
 0.000000000000000E+000
 0.999999999999497E-002
 0.199999999999950E-001
 0.299999999999868E-001
 0.399999999999878E-001
 0.499999999999838E-001
 0.599999999999860E-001
 0.699999999999824E-001
 0.799999999999755E-001
 0.899999999999697E-001
 0.999999999999555E-001
 0.109999999999941E+000
 0.119999999999937E+000
 0.129999999999926E+000
 0.139999999999916E+000
 0.149999999999907E+000
 0.159999999999899E+000
 0.169999999999889E+000
 0.179999999999878E+000
 0.189999999999871E+000
 0.199999999999858E+000
 0.209999999999852E+000
 0.219999999999840E+000
 0.229999999999838E+000
 0.239999999999829E+000
 0.249999999999818E+000
 0.259999999999811E+000
 0.269999999999798E+000
 0.279999999999792E+000
 0.289999999999780E+000
 0.299999999999774E+000
 0.309999999999779E+000
 0.319999999999782E+000
 0.329999999999795E+000
 0.339999999999796E+000
 0.349999999999809E+000
 0.359999999999812E+000
 0.369999999999820E+000
 0.379999999999836E+000
 0.389999999999838E+000
 0.399999999999852E+000
 0.409999999999853E+000
 0.419999999999865E+000
 0.429999999999869E+000
 0.439999999999876E+000
 0.449999999999885E+000
 0.459999999999894E+000
 0.469999999999901E+000
 0.479999999999905E+000
 0.489999999999917E+000
 0.499999999999913E+000
 0.509999999999898E+000
 0.519999999999911E+000
 0.529999999999913E+000
 0.539999999999917E+000
 0.549999999999932E+000
 0.559999999999945E+000
 0.569999999999960E+000
 0.579999999999974E+000
 0.589999999999989E+000
 0.600000000000000E+000
 0.000000000000000E+000
 0.999999999999595E-002
 0.199999999999974E-001
 0.299999999999901E-001
 0.399999999999926E-001
 0.499999999999894E-001
 0.599999999999929E-001
 0.699999999999903E-001
 0.799999999999844E-001
 0.899999999999802E-001
 0.999999999999671E-001
 0.109999999999953E+000
 0.119999999999951E+000
 0.129999999999941E+000
 0.139999999999933E+000
 0.149999999999926E+000
 0.159999999999919E+000
 0.169999999999910E+000
 0.179999999999900E+000
 0.189999999999895E+000
 0.199999999999883E+000
 0.209999999999879E+000
 0.219999999999868E+000
 0.229999999999868E+000
 0.239999999999860E+000
 0.249999999999849E+000
 0.259999999999844E+000
 0.269999999999833E+000
 0.279999999999828E+000
 0.289999999999818E+000
 0.299999999999813E+000
 0.309999999999816E+000
 0.319999999999818E+000
 0.329999999999829E+000
 0.339999999999829E+000
 0.349999999999840E+000
 0.359999999999843E+000
 0.369999999999849E+000
 0.379999999999864E+000
 0.389999999999865E+000
 0.399999999999877E+000
 0.409999999999877E+000
 0.419999999999888E+000
 0.429999999999890E+000
 0.439999999999896E+000
 0.449999999999903E+000
 0.459999999999911E+000
 0.469999999999917E+000
 0.479999999999919E+000
 0.489999999999930E+000
 0.499999999999925E+000
 0.509999999999908E+000
 0.519999999999919E+000
 0.529999999999920E+000
 0.539999999999922E+000
 0.549999999999936E+000
 0.559999999999949E+000
 0.569999999999963E+000
 0.579999999999977E+000
 0.589999999999990E+000
 0.600000000000000E+000
 0.000000000000000E+000
 0.999999999999692E-002
 0.199999999999997E-001
 0.299999999999935E-001
 0.399999999999974E-001
 0.499999999999950E-001
 0.599999999999998E-001
 0.699999999999981E-001
 0.799999999999932E-001
 0.899999999999908E-001
 0.999999999999787E-001
 0.109999999999966E+000
 0.119999999999965E+000
 0.129999999999956E+000
 0.139999999999949E+000
 0.149999999999944E+000
 0.159999999999938E+000
 0.169999999999931E+000
 0.179999999999922E+000
 0.189999999999919E+000
 0.199999999999908E+000
 0.209999999999906E+000
 0.219999999999896E+000
 0.229999999999897E+000
 0.239999999999890E+000
 0.249999999999881E+000
 0.259999999999878E+000
 0.269999999999867E+000
 0.279999999999864E+000
 0.289999999999855E+000
 0.299999999999851E+000
 0.309999999999854E+000
 0.319999999999854E+000
 0.329999999999864E+000
 0.339999999999863E+000
 0.349999999999873E+000
 0.359999999999873E+000
 0.369999999999878E+000
 0.379999999999892E+000
 0.389999999999892E+000
 0.399999999999903E+000
 0.409999999999901E+000
 0.419999999999910E+000
 0.429999999999912E+000
 0.439999999999916E+000
 0.449999999999922E+000
 0.459999999999928E+000
 0.469999999999933E+000
 0.479999999999934E+000
 0.489999999999943E+000
 0.499999999999937E+000
 0.509999999999918E+000
 0.519999999999927E+000
 0.529999999999927E+000
 0.539999999999928E+000
 0.549999999999940E+000
 0.559999999999953E+000
 0.569999999999965E+000
 0.579999999999979E+000
 0.589999999999991E+000
 0.600000000000000E+000
 0.000000000000000E+000
 0.999999999999790E-002
 0.200000000000021E-001
 0.299999999999968E-001
 0.400000000000022E-001
 0.500000000000007E-001
 0.600000000000067E-001
 0.700000000000060E-001
 0.800000000000020E-001
 0.900000000000012E-001
 0.999999999999903E-001
 0.109999999999979E+000
 0.119999999999979E+000
 0.129999999999971E+000
 0.139999999999966E+000
 0.149999999999962E+000
 0.159999999999958E+000
 0.169999999999952E+000
 0.179999999999945E+000
 0.189999999999943E+000
 0.199999999999934E+000
 0.209999999999932E+000
 0.219999999999924E+000
 0.229999999999926E+000
 0.239999999999921E+000
 0.249999999999913E+000
 0.259999999999911E+000
 0.269999999999902E+000
 0.279999999999900E+000
 0.289999999999892E+000
 0.299999999999889E+000
 0.309999999999891E+000
 0.319999999999890E+000
 0.329999999999899E+000
 0.339999999999896E+000
 0.349999999999904E+000
 0.359999999999904E+000
 0.369999999999907E+000
 0.379999999999921E+000
 0.389999999999919E+000
 0.399999999999928E+000
 0.409999999999926E+000
 0.419999999999933E+000
 0.429999999999933E+000
 0.439999999999936E+000
 0.449999999999941E+000
 0.459999999999945E+000
 0.469999999999948E+000
 0.479999999999948E+000
 0.489999999999956E+000
 0.499999999999949E+000
 0.509999999999928E+000
 0.519999999999935E+000
 0.529999999999934E+000
 0.539999999999934E+000
 0.549999999999944E+000
 0.559999999999957E+000
 0.569999999999968E+000
 0.579999999999981E+000
 0.589999999999991E+000
 0.600000000000000E+000
 0.000000000000000E+000
 0.999999999999887E-002
 0.200000000000045E-001
 0.300000000000002E-001
 0.400000000000071E-001
 0.500000000000063E-001
 0.600000000000135E-001
 0.700000000000138E-001
 0.800000000000109E-001
 0.900000000000118E-001
 0.100000000000002E+000
 0.109999999999991E+000
 0.119999999999993E+000
 0.129999999999987E+000
 0.139999999999983E+000
 0.149999999999980E+000
 0.159999999999977E+000
 0.169999999999973E+000
 0.179999999999967E+000
 0.189999999999967E+000
 0.199999999999958E+000
 0.209999999999959E+000
 0.219999999999952E+000
 0.229999999999955E+000
 0.239999999999951E+000
 0.249999999999944E+000
 0.259999999999944E+000
 0.269999999999936E+000
 0.279999999999937E+000
 0.289999999999930E+000
 0.299999999999927E+000
 0.309999999999929E+000
 0.319999999999927E+000
 0.329999999999933E+000
 0.339999999999930E+000
 0.349999999999936E+000
 0.359999999999934E+000
 0.369999999999936E+000
 0.379999999999949E+000
 0.389999999999947E+000
 0.399999999999954E+000
 0.409999999999950E+000
 0.419999999999956E+000
 0.429999999999955E+000
 0.439999999999956E+000
 0.449999999999959E+000
 0.459999999999962E+000
 0.469999999999964E+000
 0.479999999999963E+000
 0.489999999999969E+000
 0.499999999999961E+000
 0.509999999999938E+000
 0.519999999999944E+000
 0.529999999999941E+000
 0.539999999999940E+000
 0.549999999999949E+000
 0.559999999999961E+000
 0.569999999999970E+000
 0.579999999999983E+000
 0.589999999999992E+000
 0.600000000000000E+000
 0.000000000000000E+000
 0.999999999999985E-002
 0.200000000000068E-001
 0.300000000000035E-001
 0.400000000000119E-001
 0.500000000000119E-001
 0.600000000000204E-001
 0.700000000000217E-001
 0.800000000000197E-001
 0.900000000000223E-001
 0.100000000000013E+000
 0.110000000000004E+000
 0.120000000000007E+000
 0.130000000000002E+000
 0.140000000000000E+000
 0.149999999999998E+000
 0.159999999999997E+000
 0.169999999999994E+000
 0.179999999999989E+000
 0.189999999999991E+000
 0.199999999999983E+000
 0.209999999999986E+000
 0.219999999999980E+000
 0.229999999999984E+000
 0.239999999999982E+000
 0.249999999999976E+000
 0.259999999999978E+000
 0.269999999999971E+000
 0.279999999999973E+000
 0.289999999999967E+000
 0.299999999999966E+000
 0.309999999999966E+000
 0.319999999999963E+000
 0.329999999999968E+000
 0.339999999999963E+000
 0.349999999999968E+000
 0.359999999999965E+000
 0.369999999999966E+000
 0.379999999999977E+000
 0.389999999999974E+000
 0.399999999999979E+000
 0.409999999999974E+000
 0.419999999999979E+000
 0.429999999999976E+000
 0.439999999999976E+000
 0.449999999999978E+000
 0.459999999999979E+000
 0.469999999999980E+000
 0.479999999999977E+000
 0.489999999999982E+000
 0.499999999999973E+000
 0.509999999999948E+000
 0.519999999999952E+000
 0.529999999999948E+000
 0.539999999999945E+000
 0.549999999999953E+000
 0.559999999999965E+000
 0.569999999999972E+000
 0.579999999999985E+000
 0.589999999999993E+000
 0.600000000000000E+000
 0.000000000000000E+000
 0.100000000000008E-001
 0.200000000000092E-001
 0.300000000000069E-001
 0.400000000000167E-001
 0.500000000000176E-001
 0.600000000000273E-001
 0.700000000000295E-001
 0.800000000000286E-001
 0.900000000000328E-001
 0.100000000000025E+000
 0.110000000000016E+000
 0.120000000000021E+000
 0.130000000000017E+000
 0.140000000000016E+000
 0.150000000000016E+000
 0.160000000000017E+000
 0.170000000000015E+000
 0.180000000000012E+000
 0.190000000000015E+000
 0.200000000000009E+000