 VARIABLES ="x" "y" "z" "Tw" "qw"
 ZONE  T = B1F1, I=1, J=41, K=2, DATAPACKING=BLOCK, VARLOCATION=([1-3]=NODAL,[4-5]=CELLCENTERED), SOLUTIONTIME=0.489400000000000E+004, STRANDID = 0
 0.000000000000000E+000
 0.000000000000000E+000
 0.000000000000000E+000
 0.000000000000000E+000
 0.000000000000000E+000
 0.000000000000000E+000
 0.000000000000000E+000
 0.000000000000000E+000
 0.000000000000000E+000
 0.000000000000000E+000
 0.000000000000000E+000
 0.000000000000000E+000
 0.000000000000000E+000
 0.000000000000000E+000
 0.000000000000000E+000
 0.000000000000000E+000
 0.000000000000000E+000
 0.000000000000000E+000
 0.000000000000000E+000
 0.000000000000000E+000
 0.000000000000000E+000
 0.000000000000000E+000
 0.000000000000000E+000
 0.000000000000000E+000
 0.000000000000000E+000
 0.000000000000000E+000
 0.000000000000000E+000
 0.000000000000000E+000
 0.000000000000000E+000
 0.000000000000000E+000
 0.000000000000000E+000
 0.000000000000000E+000
 0.000000000000000E+000
 0.000000000000000E+000
 0.000000000000000E+000
 0.000000000000000E+000
 0.000000000000000E+000
 0.000000000000000E+000
 0.000000000000000E+000
 0.000000000000000E+000
 0.000000000000000E+000
 0.000000000000000E+000
 0.000000000000000E+000
 0.000000000000000E+000
 0.000000000000000E+000
 0.000000000000000E+000
 0.000000000000000E+000
 0.000000000000000E+000
 0.000000000000000E+000
 0.000000000000000E+000
 0.000000000000000E+000
 0.000000000000000E+000
 0.000000000000000E+000
 0.000000000000000E+000
 0.000000000000000E+000
 0.000000000000000E+000
 0.000000000000000E+000
 0.000000000000000E+000
 0.000000000000000E+000
 0.000000000000000E+000
 0.000000000000000E+000
 0.000000000000000E+000
 0.000000000000000E+000
 0.000000000000000E+000
 0.000000000000000E+000
 0.000000000000000E+000
 0.000000000000000E+000
 0.000000000000000E+000
 0.000000000000000E+000
 0.000000000000000E+000
 0.000000000000000E+000
 0.000000000000000E+000
 0.000000000000000E+000
 0.000000000000000E+000
 0.000000000000000E+000
 0.000000000000000E+000
 0.000000000000000E+000
 0.000000000000000E+000
 0.000000000000000E+000
 0.000000000000000E+000
 0.000000000000000E+000
 0.000000000000000E+000
 0.000000000000000E+000
 0.100000000000310E-001
 0.200000000000510E-001
 0.300000000000863E-001
 0.400000000001128E-001
 0.500000000001329E-001
 0.600000000001725E-001
 0.700000000001948E-001
 0.800000000002192E-001
 0.900000000002566E-001
 0.100000000000277E+000
 0.110000000000297E+000
 0.120000000000334E+000
 0.130000000000359E+000
 0.140000000000381E+000
 0.150000000000415E+000
 0.160000000000441E+000
 0.170000000000469E+000
 0.180000000000499E+000
 0.190000000000524E+000
 0.200000000000548E+000
 0.210000000000526E+000
 0.220000000000498E+000
 0.230000000000470E+000
 0.240000000000443E+000
 0.250000000000415E+000
 0.260000000000387E+000
 0.270000000000360E+000
 0.280000000000332E+000
 0.290000000000304E+000
 0.300000000000277E+000
 0.310000000000249E+000
 0.320000000000221E+000
 0.330000000000194E+000
 0.340000000000166E+000
 0.350000000000138E+000
 0.360000000000111E+000
 0.370000000000083E+000
 0.380000000000055E+000
 0.390000000000028E+000
 0.400000000000000E+000
 0.000000000000000E+000
 0.100000000000310E-001
 0.200000000000510E-001
 0.300000000000863E-001
 0.400000000001128E-001
 0.500000000001329E-001
 0.600000000001725E-001
 0.700000000001948E-001
 0.800000000002192E-001
 0.900000000002566E-001
 0.100000000000277E+000
 0.110000000000297E+000
 0.120000000000334E+000
 0.130000000000359E+000
 0.140000000000381E+000
 0.150000000000415E+000
 0.160000000000441E+000
 0.170000000000469E+000
 0.180000000000499E+000
 0.190000000000524E+000
 0.200000000000548E+000
 0.210000000000526E+000
 0.220000000000498E+000
 0.230000000000470E+000
 0.240000000000443E+000
 0.250000000000415E+000
 0.260000000000387E+000
 0.270000000000360E+000
 0.280000000000332E+000
 0.290000000000304E+000
 0.300000000000277E+000
 0.310000000000249E+000
 0.320000000000221E+000
 0.330000000000194E+000
 0.340000000000166E+000
 0.350000000000138E+000
 0.360000000000111E+000
 0.370000000000083E+000
 0.380000000000055E+000
 0.390000000000028E+000
 0.400000000000000E+000
-0.500000000000000E-002
-0.500000000000000E-002
-0.500000000000000E-002
-0.500000000000000E-002
-0.500000000000000E-002
-0.500000000000000E-002
-0.500000000000000E-002
-0.500000000000000E-002
-0.500000000000000E-002
-0.500000000000000E-002
-0.500000000000000E-002
-0.500000000000000E-002
-0.500000000000000E-002
-0.500000000000000E-002
-0.500000000000000E-002
-0.500000000000000E-002
-0.500000000000000E-002
-0.500000000000000E-002
-0.500000000000000E-002
-0.500000000000000E-002
-0.500000000000000E-002
-0.500000000000000E-002
-0.500000000000000E-002
-0.500000000000000E-002
-0.500000000000000E-002
-0.500000000000000E-002
-0.500000000000000E-002
-0.500000000000000E-002
-0.500000000000000E-002
-0.500000000000000E-002
-0.500000000000000E-002
-0.500000000000000E-002
-0.500000000000000E-002
-0.500000000000000E-002
-0.500000000000000E-002
-0.500000000000000E-002
-0.500000000000000E-002
-0.500000000000000E-002
-0.500000000000000E-002
-0.500000000000000E-002
-0.500000000000000E-002
 0.500000000000000E-002
 0.500000000000000E-002
 0.500000000000000E-002
 0.500000000000000E-002
 0.500000000000000E-002
 0.500000000000000E-002
 0.500000000000000E-002
 0.500000000000000E-002
 0.500000000000000E-002
 0.500000000000000E-002
 0.500000000000000E-002
 0.500000000000000E-002
 0.500000000000000E-002
 0.500000000000000E-002
 0.500000000000000E-002
 0.500000000000000E-002
 0.500000000000000E-002
 0.500000000000000E-002
 0.500000000000000E-002
 0.500000000000000E-002
 0.500000000000000E-002
 0.500000000000000E-002
 0.500000000000000E-002
 0.500000000000000E-002
 0.500000000000000E-002
 0.500000000000000E-002
 0.500000000000000E-002
 0.500000000000000E-002
 0.500000000000000E-002
 0.500000000000000E-002
 0.500000000000000E-002
 0.500000000000000E-002
 0.500000000000000E-002
 0.500000000000000E-002
 0.500000000000000E-002
 0.500000000000000E-002
 0.500000000000000E-002
 0.500000000000000E-002
 0.500000000000000E-002
 0.500000000000000E-002
 0.500000000000000E-002
 0.127315000000000E+004
 0.127315000000000E+004
 0.127315000000000E+004
 0.127315000000000E+004
 0.127315000000000E+004
 0.127315000000000E+004
 0.127315000000000E+004
 0.127315000000000E+004
 0.127315000000000E+004
 0.127315000000000E+004
 0.127315000000000E+004
 0.127315000000000E+004
 0.127315000000000E+004
 0.127315000000000E+004
 0.127315000000000E+004
 0.127315000000000E+004
 0.127315000000000E+004
 0.127315000000000E+004
 0.127315000000000E+004
 0.127315000000000E+004
 0.127315000000000E+004
 0.127315000000000E+004
 0.127315000000000E+004
 0.127315000000000E+004
 0.127315000000000E+004
 0.127315000000000E+004
 0.127315000000000E+004
 0.127315000000000E+004
 0.127315000000000E+004
 0.127315000000000E+004
 0.127315000000000E+004
 0.127315000000000E+004
 0.127315000000000E+004
 0.127315000000000E+004
 0.127315000000000E+004
 0.127315000000000E+004
 0.127315000000000E+004
 0.127315000000000E+004
 0.127315000000000E+004
 0.127315000000000E+004
-0.520170623315322E+007
-0.236343478571120E+007
-0.140011169354590E+007
-0.983662688682794E+006
-0.762479852572639E+006
-0.626812954728600E+006
-0.535481102012339E+006
-0.470149631325325E+006
-0.421456668454374E+006
-0.384111069704313E+006
-0.354892372962798E+006
-0.331729745411247E+006
-0.313235312048246E+006
-0.298449558297799E+006
-0.286694207734864E+006
-0.277483305629801E+006
-0.270467622296355E+006
-0.265399089388525E+006
-0.262107866228313E+006
-0.260487793942886E+006
-0.260487793942982E+006
-0.262107866228586E+006
-0.265399089388944E+006
-0.270467622296909E+006
-0.277483305630514E+006
-0.286694207735720E+006
-0.298449558298782E+006
-0.313235312049413E+006
-0.331729745412578E+006
-0.354892372964302E+006
-0.384111069706072E+006
-0.421456668456407E+006
-0.470149631327665E+006
-0.535481102015167E+006
-0.626812954732017E+006
-0.762479852576896E+006
-0.983662688688706E+006
-0.140011169355457E+007
-0.236343478572407E+007
-0.520170623316557E+007
 ZONE  T = B1F2, I=1, J=41, K=2, DATAPACKING=BLOCK, VARLOCATION=([1-3]=NODAL,[4-5]=CELLCENTERED), SOLUTIONTIME=0.489400000000000E+004, STRANDID = 0
 0.600000000000000E+000
 0.600000000000000E+000
 0.600000000000000E+000
 0.600000000000000E+000
 0.600000000000000E+000
 0.600000000000000E+000
 0.600000000000000E+000
 0.600000000000000E+000
 0.600000000000000E+000
 0.600000000000000E+000
 0.600000000000000E+000
 0.600000000000000E+000
 0.600000000000000E+000
 0.600000000000000E+000
 0.600000000000000E+000
 0.600000000000000E+000
 0.600000000000000E+000
 0.600000000000000E+000
 0.600000000000000E+000
 0.600000000000000E+000
 0.600000000000000E+000
 0.600000000000000E+000
 0.600000000000000E+000
 0.600000000000000E+000
 0.600000000000000E+000
 0.600000000000000E+000
 0.600000000000000E+000
 0.600000000000000E+000
 0.600000000000000E+000
 0.600000000000000E+000
 0.600000000000000E+000
 0.600000000000000E+000
 0.600000000000000E+000
 0.600000000000000E+000
 0.600000000000000E+000
 0.600000000000000E+000
 0.600000000000000E+000
 0.600000000000000E+000
 0.600000000000000E+000
 0.600000000000000E+000
 0.600000000000000E+000
 0.600000000000000E+000
 0.600000000000000E+000
 0.600000000000000E+000
 0.600000000000000E+000
 0.600000000000000E+000
 0.600000000000000E+000
 0.600000000000000E+000
 0.600000000000000E+000
 0.600000000000000E+000
 0.600000000000000E+000
 0.600000000000000E+000
 0.600000000000000E+000
 0.600000000000000E+000
 0.600000000000000E+000
 0.600000000000000E+000
 0.600000000000000E+000
 0.600000000000000E+000
 0.600000000000000E+000
 0.600000000000000E+000
 0.600000000000000E+000
 0.600000000000000E+000
 0.600000000000000E+000
 0.600000000000000E+000
 0.600000000000000E+000
 0.600000000000000E+000
 0.600000000000000E+000
 0.600000000000000E+000
 0.600000000000000E+000
 0.600000000000000E+000
 0.600000000000000E+000
 0.600000000000000E+000
 0.600000000000000E+000
 0.600000000000000E+000
 0.600000000000000E+000
 0.600000000000000E+000
 0.600000000000000E+000
 0.600000000000000E+000
 0.600000000000000E+000
 0.600000000000000E+000
 0.600000000000000E+000
 0.600000000000000E+000
 0.000000000000000E+000
 0.999999999998193E-002
 0.199999999999612E-001
 0.299999999999440E-001
 0.399999999999299E-001
 0.499999999999142E-001
 0.599999999998869E-001
 0.699999999998582E-001
 0.799999999998241E-001
 0.899999999997954E-001
 0.999999999997667E-001
 0.109999999999738E+000
 0.119999999999709E+000
 0.129999999999681E+000
 0.139999999999652E+000
 0.149999999999618E+000
 0.159999999999584E+000
 0.169999999999555E+000
 0.179999999999526E+000
 0.189999999999497E+000
 0.199999999999474E+000
 0.209999999999498E+000
 0.219999999999521E+000
 0.229999999999550E+000
 0.239999999999577E+000
 0.249999999999602E+000
 0.259999999999635E+000
 0.269999999999656E+000
 0.279999999999679E+000
 0.289999999999715E+000
 0.299999999999734E+000
 0.309999999999753E+000
 0.319999999999790E+000
 0.329999999999813E+000
 0.339999999999834E+000
 0.349999999999873E+000
 0.359999999999892E+000
 0.369999999999917E+000
 0.379999999999951E+000
 0.389999999999970E+000
 0.400000000000000E+000
 0.000000000000000E+000
 0.999999999998193E-002
 0.199999999999612E-001
 0.299999999999440E-001
 0.399999999999299E-001
 0.499999999999142E-001
 0.599999999998869E-001
 0.699999999998582E-001
 0.799999999998241E-001
 0.899999999997954E-001
 0.999999999997667E-001
 0.109999999999738E+000
 0.119999999999709E+000
 0.129999999999681E+000
 0.139999999999652E+000
 0.149999999999618E+000
 0.159999999999584E+000
 0.169999999999555E+000
 0.179999999999526E+000
 0.189999999999497E+000
 0.199999999999474E+000
 0.209999999999498E+000
 0.219999999999521E+000
 0.229999999999550E+000
 0.239999999999577E+000
 0.249999999999602E+000
 0.259999999999635E+000
 0.269999999999656E+000
 0.279999999999679E+000
 0.289999999999715E+000
 0.299999999999734E+000
 0.309999999999753E+000
 0.319999999999790E+000
 0.329999999999813E+000
 0.339999999999834E+000
 0.349999999999873E+000
 0.359999999999892E+000
 0.369999999999917E+000
 0.379999999999951E+000
 0.389999999999970E+000
 0.400000000000000E+000
-0.500000000000000E-002
-0.500000000000000E-002
-0.500000000000000E-002
-0.500000000000000E-002
-0.500000000000000E-002
-0.500000000000000E-002
-0.500000000000000E-002
-0.500000000000000E-002
-0.500000000000000E-002
-0.500000000000000E-002
-0.500000000000000E-002
-0.500000000000000E-002
-0.500000000000000E-002
-0.500000000000000E-002
-0.500000000000000E-002
-0.500000000000000E-002
-0.500000000000000E-002
-0.500000000000000E-002
-0.500000000000000E-002
-0.500000000000000E-002
-0.500000000000000E-002
-0.500000000000000E-002
-0.500000000000000E-002
-0.500000000000000E-002
-0.500000000000000E-002
-0.500000000000000E-002
-0.500000000000000E-002
-0.500000000000000E-002
-0.500000000000000E-002
-0.500000000000000E-002
-0.500000000000000E-002
-0.500000000000000E-002
-0.500000000000000E-002
-0.500000000000000E-002
-0.500000000000000E-002
-0.500000000000000E-002
-0.500000000000000E-002
-0.500000000000000E-002
-0.500000000000000E-002
-0.500000000000000E-002
-0.500000000000000E-002
 0.500000000000000E-002
 0.500000000000000E-002
 0.500000000000000E-002
 0.500000000000000E-002
 0.500000000000000E-002
 0.500000000000000E-002
 0.500000000000000E-002
 0.500000000000000E-002
 0.500000000000000E-002
 0.500000000000000E-002
 0.500000000000000E-002
 0.500000000000000E-002
 0.500000000000000E-002
 0.500000000000000E-002
 0.500000000000000E-002
 0.500000000000000E-002
 0.500000000000000E-002
 0.500000000000000E-002
 0.500000000000000E-002
 0.500000000000000E-002
 0.500000000000000E-002
 0.500000000000000E-002
 0.500000000000000E-002
 0.500000000000000E-002
 0.500000000000000E-002
 0.500000000000000E-002
 0.500000000000000E-002
 0.500000000000000E-002
 0.500000000000000E-002
 0.500000000000000E-002
 0.500000000000000E-002
 0.500000000000000E-002
 0.500000000000000E-002
 0.500000000000000E-002
 0.500000000000000E-002
 0.500000000000000E-002
 0.500000000000000E-002
 0.500000000000000E-002
 0.500000000000000E-002
 0.500000000000000E-002
 0.500000000000000E-002
 0.273150000000000E+003
 0.273150000000000E+003
 0.273150000000000E+003
 0.273150000000000E+003
 0.273150000000000E+003
 0.273150000000000E+003
 0.273150000000000E+003
 0.273150000000000E+003
 0.273150000000000E+003
 0.273150000000000E+003
 0.273150000000000E+003
 0.273150000000000E+003
 0.273150000000000E+003
 0.273150000000000E+003
 0.273150000000000E+003
 0.273150000000000E+003
 0.273150000000000E+003
 0.273150000000000E+003
 0.273150000000000E+003
 0.273150000000000E+003
 0.273150000000000E+003
 0.273150000000000E+003
 0.273150000000000E+003
 0.273150000000000E+003
 0.273150000000000E+003
 0.273150000000000E+003
 0.273150000000000E+003
 0.273150000000000E+003
 0.273150000000000E+003
 0.273150000000000E+003
 0.273150000000000E+003
 0.273150000000000E+003
 0.273150000000000E+003
 0.273150000000000E+003
 0.273150000000000E+003
 0.273150000000000E+003
 0.273150000000000E+003
 0.273150000000000E+003
 0.273150000000000E+003
 0.273150000000000E+003
-0.367519230594210E+003
-0.110028720036039E+004
-0.182625794935471E+004
-0.254094740665290E+004
-0.323994226009211E+004
-0.391892755357646E+004
-0.457371358974193E+004
-0.520026195558546E+004
-0.579471049984445E+004
-0.635339710381754E+004
-0.687288210137276E+004
-0.734996921872958E+004
-0.778172491971496E+004
-0.816549605723035E+004
-0.849892574612745E+004
-0.877996738643626E+004
-0.900689677851055E+004
-0.917832228312917E+004
-0.929319298984476E+004
-0.935080486588293E+004
-0.935080486588517E+004
-0.929319298985120E+004
-0.917832228314148E+004
-0.900689677852658E+004
-0.877996738645595E+004
-0.849892574614864E+004
-0.816549605725382E+004
-0.778172491974001E+004
-0.734996921875466E+004
-0.687288210139808E+004
-0.635339710384193E+004
-0.579471049986806E+004
-0.520026195560662E+004
-0.457371358976065E+004
-0.391892755359167E+004
-0.323994226010576E+004
-0.254094740666360E+004
-0.182625794936247E+004
-0.110028720036547E+004
-0.367519230595757E+003
 ZONE  T = B1F3, I=61, J=1, K=2, DATAPACKING=BLOCK, VARLOCATION=([1-3]=NODAL,[4-5]=CELLCENTERED), SOLUTIONTIME=0.489400000000000E+004, STRANDID = 0
 0.000000000000000E+000
 0.999999999998132E-002
 0.199999999999619E-001
 0.299999999999400E-001
 0.399999999999205E-001
 0.499999999999049E-001
 0.599999999998898E-001
 0.699999999998725E-001
 0.799999999998518E-001
 0.899999999998227E-001
 0.999999999997935E-001
 0.109999999999766E+000
 0.119999999999741E+000
 0.129999999999712E+000
 0.139999999999682E+000
 0.149999999999653E+000
 0.159999999999624E+000
 0.169999999999595E+000
 0.179999999999566E+000
 0.189999999999537E+000
 0.199999999999508E+000
 0.209999999999478E+000
 0.219999999999449E+000
 0.229999999999431E+000
 0.239999999999402E+000
 0.249999999999373E+000
 0.259999999999344E+000
 0.269999999999315E+000
 0.279999999999285E+000
 0.289999999999256E+000
 0.299999999999238E+000
 0.309999999999255E+000
 0.319999999999275E+000
 0.329999999999311E+000
 0.339999999999328E+000
 0.349999999999363E+000
 0.359999999999384E+000
 0.369999999999411E+000
 0.379999999999440E+000
 0.389999999999459E+000
 0.399999999999496E+000
 0.409999999999513E+000
 0.419999999999547E+000
 0.429999999999569E+000
 0.439999999999595E+000
 0.449999999999624E+000
 0.459999999999654E+000
 0.469999999999680E+000
 0.479999999999702E+000
 0.489999999999736E+000
 0.499999999999746E+000
 0.509999999999760E+000
 0.519999999999797E+000
 0.529999999999815E+000
 0.539999999999837E+000
 0.549999999999871E+000
 0.559999999999888E+000
 0.569999999999927E+000
 0.579999999999944E+000
 0.589999999999980E+000
 0.600000000000000E+000
 0.000000000000000E+000
 0.999999999998132E-002
 0.199999999999619E-001
 0.299999999999400E-001
 0.399999999999205E-001
 0.499999999999049E-001
 0.599999999998898E-001
 0.699999999998725E-001
 0.799999999998518E-001
 0.899999999998227E-001
 0.999999999997935E-001
 0.109999999999766E+000
 0.119999999999741E+000
 0.129999999999712E+000
 0.139999999999682E+000
 0.149999999999653E+000
 0.159999999999624E+000
 0.169999999999595E+000
 0.179999999999566E+000
 0.189999999999537E+000
 0.199999999999508E+000
 0.209999999999478E+000
 0.219999999999449E+000
 0.229999999999431E+000
 0.239999999999402E+000
 0.249999999999373E+000
 0.259999999999344E+000
 0.269999999999315E+000
 0.279999999999285E+000
 0.289999999999256E+000
 0.299999999999238E+000
 0.309999999999255E+000
 0.319999999999275E+000
 0.329999999999311E+000
 0.339999999999328E+000
 0.349999999999363E+000
 0.359999999999384E+000
 0.369999999999411E+000
 0.379999999999440E+000
 0.389999999999459E+000
 0.399999999999496E+000
 0.409999999999513E+000
 0.419999999999547E+000
 0.429999999999569E+000
 0.439999999999595E+000
 0.449999999999624E+000
 0.459999999999654E+000
 0.469999999999680E+000
 0.479999999999702E+000
 0.489999999999736E+000
 0.499999999999746E+000
 0.509999999999760E+000
 0.519999999999797E+000
 0.529999999999815E+000
 0.539999999999837E+000
 0.549999999999871E+000
 0.559999999999888E+000
 0.569999999999927E+000
 0.579999999999944E+000
 0.589999999999980E+000
 0.600000000000000E+000
 0.000000000000000E+000
 0.000000000000000E+000
 0.000000000000000E+000
 0.000000000000000E+000
 0.000000000000000E+000
 0.000000000000000E+000
 0.000000000000000E+000
 0.000000000000000E+000
 0.000000000000000E+000
 0.000000000000000E+000
 0.000000000000000E+000
 0.000000000000000E+000
 0.000000000000000E+000
 0.000000000000000E+000
 0.000000000000000E+000
 0.000000000000000E+000
 0.000000000000000E+000
 0.000000000000000E+000
 0.000000000000000E+000
 0.000000000000000E+000
 0.000000000000000E+000
 0.000000000000000E+000
 0.000000000000000E+000
 0.000000000000000E+000
 0.000000000000000E+000
 0.000000000000000E+000
 0.000000000000000E+000
 0.000000000000000E+000
 0.000000000000000E+000
 0.000000000000000E+000
 0.000000000000000E+000
 0.000000000000000E+000
 0.000000000000000E+000
 0.000000000000000E+000
 0.000000000000000E+000
 0.000000000000000E+000
 0.000000000000000E+000
 0.000000000000000E+000
 0.000000000000000E+000
 0.000000000000000E+000
 0.000000000000000E+000
 0.000000000000000E+000
 0.000000000000000E+000
 0.000000000000000E+000
 0.000000000000000E+000
 0.000000000000000E+000
 0.000000000000000E+000
 0.000000000000000E+000
 0.000000000000000E+000
 0.000000000000000E+000
 0.000000000000000E+000
 0.000000000000000E+000
 0.000000000000000E+000
 0.000000000000000E+000
 0.000000000000000E+000
 0.000000000000000E+000
 0.000000000000000E+000
 0.000000000000000E+000
 0.000000000000000E+000
 0.000000000000000E+000
 0.000000000000000E+000
 0.000000000000000E+000
 0.000000000000000E+000
 0.000000000000000E+000
 0.000000000000000E+000
 0.000000000000000E+000
 0.000000000000000E+000
 0.000000000000000E+000
 0.000000000000000E+000
 0.000000000000000E+000
 0.000000000000000E+000
 0.000000000000000E+000
 0.000000000000000E+000
 0.000000000000000E+000
 0.000000000000000E+000
 0.000000000000000E+000
 0.000000000000000E+000
 0.000000000000000E+000
 0.000000000000000E+000
 0.000000000000000E+000
 0.000000000000000E+000
 0.000000000000000E+000
 0.000000000000000E+000
 0.000000000000000E+000
 0.000000000000000E+000
 0.000000000000000E+000
 0.000000000000000E+000
 0.000000000000000E+000
 0.000000000000000E+000
 0.000000000000000E+000
 0.000000000000000E+000
 0.000000000000000E+000
 0.000000000000000E+000
 0.000000000000000E+000
 0.000000000000000E+000
 0.000000000000000E+000
 0.000000000000000E+000
 0.000000000000000E+000
 0.000000000000000E+000
 0.000000000000000E+000
 0.000000000000000E+000
 0.000000000000000E+000
 0.000000000000000E+000
 0.000000000000000E+000
 0.000000000000000E+000
 0.000000000000000E+000
 0.000000000000000E+000
 0.000000000000000E+000
 0.000000000000000E+000
 0.000000000000000E+000
 0.000000000000000E+000
 0.000000000000000E+000
 0.000000000000000E+000
 0.000000000000000E+000
 0.000000000000000E+000
 0.000000000000000E+000
 0.000000000000000E+000
 0.000000000000000E+000
 0.000000000000000E+000
 0.000000000000000E+000
 0.000000000000000E+000
 0.000000000000000E+000
-0.500000000000000E-002
-0.500000000000000E-002
-0.500000000000000E-002
-0.500000000000000E-002
-0.500000000000000E-002
-0.500000000000000E-002
-0.500000000000000E-002
-0.500000000000000E-002
-0.500000000000000E-002
-0.500000000000000E-002
-0.500000000000000E-002
-0.500000000000000E-002
-0.500000000000000E-002
-0.500000000000000E-002
-0.500000000000000E-002
-0.500000000000000E-002
-0.500000000000000E-002
-0.500000000000000E-002
-0.500000000000000E-002
-0.500000000000000E-002
-0.500000000000000E-002
-0.500000000000000E-002
-0.500000000000000E-002
-0.500000000000000E-002
-0.500000000000000E-002
-0.500000000000000E-002
-0.500000000000000E-002
-0.500000000000000E-002
-0.500000000000000E-002
-0.500000000000000E-002
-0.500000000000000E-002
-0.500000000000000E-002
-0.500000000000000E-002
-0.500000000000000E-002
-0.500000000000000E-002
-0.500000000000000E-002
-0.500000000000000E-002
-0.500000000000000E-002
-0.500000000000000E-002
-0.500000000000000E-002
-0.500000000000000E-002
-0.500000000000000E-002
-0.500000000000000E-002
-0.500000000000000E-002
-0.500000000000000E-002
-0.500000000000000E-002
-0.500000000000000E-002
-0.500000000000000E-002
-0.500000000000000E-002
-0.500000000000000E-002
-0.500000000000000E-002
-0.500000000000000E-002
-0.500000000000000E-002
-0.500000000000000E-002
-0.500000000000000E-002
-0.500000000000000E-002
-0.500000000000000E-002
-0.500000000000000E-002
-0.500000000000000E-002
-0.500000000000000E-002
-0.500000000000000E-002
 0.500000000000000E-002
 0.500000000000000E-002
 0.500000000000000E-002
 0.500000000000000E-002
 0.500000000000000E-002
 0.500000000000000E-002
 0.500000000000000E-002
 0.500000000000000E-002
 0.500000000000000E-002
 0.500000000000000E-002
 0.500000000000000E-002
 0.500000000000000E-002
 0.500000000000000E-002
 0.500000000000000E-002
 0.500000000000000E-002
 0.500000000000000E-002
 0.500000000000000E-002
 0.500000000000000E-002
 0.500000000000000E-002
 0.500000000000000E-002
 0.500000000000000E-002
 0.500000000000000E-002
 0.500000000000000E-002
 0.500000000000000E-002
 0.500000000000000E-002
 0.500000000000000E-002
 0.500000000000000E-002
 0.500000000000000E-002
 0.500000000000000E-002
 0.500000000000000E-002
 0.500000000000000E-002
 0.500000000000000E-002
 0.500000000000000E-002
 0.500000000000000E-002
 0.500000000000000E-002
 0.500000000000000E-002
 0.500000000000000E-002
 0.500000000000000E-002
 0.500000000000000E-002
 0.500000000000000E-002
 0.500000000000000E-002
 0.500000000000000E-002
 0.500000000000000E-002
 0.500000000000000E-002
 0.500000000000000E-002
 0.500000000000000E-002
 0.500000000000000E-002
 0.500000000000000E-002
 0.500000000000000E-002
 0.500000000000000E-002
 0.500000000000000E-002
 0.500000000000000E-002
 0.500000000000000E-002
 0.500000000000000E-002
 0.500000000000000E-002
 0.500000000000000E-002
 0.500000000000000E-002
 0.500000000000000E-002
 0.500000000000000E-002
 0.500000000000000E-002
 0.500000000000000E-002
 0.273150000000000E+003
 0.273150000000000E+003
 0.273150000000000E+003
 0.273150000000000E+003
 0.273150000000000E+003
 0.273150000000000E+003
 0.273150000000000E+003
 0.273150000000000E+003
 0.273150000000000E+003
 0.273150000000000E+003
 0.273150000000000E+003
 0.273150000000000E+003
 0.273150000000000E+003
 0.273150000000000E+003
 0.273150000000000E+003
 0.273150000000000E+003
 0.273150000000000E+003
 0.273150000000000E+003
 0.273150000000000E+003
 0.273150000000000E+003
 0.273150000000000E+003
 0.273150000000000E+003
 0.273150000000000E+003
 0.273150000000000E+003
 0.273150000000000E+003
 0.273150000000000E+003
 0.273150000000000E+003
 0.273150000000000E+003
 0.273150000000000E+003
 0.273150000000000E+003
 0.273150000000000E+003
 0.273150000000000E+003
 0.273150000000000E+003
 0.273150000000000E+003
 0.273150000000000E+003
 0.273150000000000E+003
 0.273150000000000E+003
 0.273150000000000E+003
 0.273150000000000E+003
 0.273150000000000E+003
 0.273150000000000E+003
 0.273150000000000E+003
 0.273150000000000E+003
 0.273150000000000E+003
 0.273150000000000E+003
 0.273150000000000E+003
 0.273150000000000E+003
 0.273150000000000E+003
 0.273150000000000E+003
 0.273150000000000E+003
 0.273150000000000E+003
 0.273150000000000E+003
 0.273150000000000E+003
 0.273150000000000E+003
 0.273150000000000E+003
 0.273150000000000E+003
 0.273150000000000E+003
 0.273150000000000E+003
 0.273150000000000E+003
 0.273150000000000E+003
 0.519829376684033E+007
 0.235319738676107E+007
 0.138304916882335E+007
 0.959774072546702E+006
 0.731762440989146E+006
 0.589260951712900E+006
 0.491083875071220E+006
 0.418889568775515E+006
 0.363306625505379E+006
 0.319031381473801E+006
 0.282827400482175E+006
 0.252603904365681E+006
 0.226948512415785E+006
 0.204871954750573E+006
 0.185660123597892E+006
 0.168784144445281E+006
 0.153843516394964E+006
 0.140528948151985E+006
 0.128597368806393E+006
 0.117854708370779E+006
 0.108143776055197E+006
 0.993355652357475E+005
 0.913229115894009E+005
 0.840157980738575E+005
 0.773378320259242E+005
 0.712235691555998E+005
 0.656164577728219E+005
 0.604672428088984E+005
 0.557327144716290E+005
 0.513747178212225E+005
 0.473593617145989E+005
 0.436563813886326E+005
 0.402386203869267E+005
 0.370816058884520E+005
 0.341631976605922E+005
 0.314632954490348E+005
 0.289635930628496E+005
 0.266473700195334E+005
 0.244993135996974E+005
 0.225053656818974E+005
 0.206525899001682E+005
 0.189290555745214E+005
 0.173237355712638E+005
 0.158264158022714E+005
 0.144276145059417E+005
 0.131185097943031E+005
 0.118908742210086E+005
 0.107370153395881E+005
 0.964972139224775E+004
 0.862221140610341E+004
 0.764808908322799E+004
 0.672129995884739E+004
 0.583609137289819E+004
 0.498697485725485E+004
 0.416869058704204E+004
 0.337617358160807E+004
 0.260452137049564E+004
 0.184896286358051E+004
 0.110482818320887E+004
 0.367519230595558E+003
 ZONE  T = B1F4, I=61, J=1, K=2, DATAPACKING=BLOCK, VARLOCATION=([1-3]=NODAL,[4-5]=CELLCENTERED), SOLUTIONTIME=0.489400000000000E+004, STRANDID = 0
 0.000000000000000E+000
 0.100000000000203E-001
 0.200000000000565E-001
 0.300000000000737E-001
 0.400000000001128E-001
 0.500000000001302E-001
 0.600000000001648E-001
 0.700000000001866E-001
 0.800000000002054E-001
 0.900000000002429E-001
 0.100000000000257E+000
 0.110000000000267E+000
 0.120000000000302E+000
 0.130000000000323E+000
 0.140000000000350E+000
 0.150000000000379E+000
 0.160000000000409E+000
 0.170000000000436E+000
 0.180000000000458E+000
 0.190000000000492E+000
 0.200000000000510E+000
 0.210000000000546E+000
 0.220000000000566E+000
 0.230000000000595E+000
 0.240000000000622E+000
 0.250000000000643E+000
 0.260000000000679E+000
 0.270000000000696E+000
 0.280000000000732E+000
 0.290000000000753E+000
 0.300000000000770E+000
 0.310000000000752E+000
 0.320000000000723E+000
 0.330000000000694E+000
 0.340000000000665E+000
 0.350000000000636E+000
 0.360000000000607E+000
 0.370000000000578E+000
 0.380000000000571E+000
 0.390000000000542E+000
 0.400000000000513E+000
 0.410000000000484E+000
 0.420000000000456E+000
 0.430000000000426E+000
 0.440000000000398E+000
 0.450000000000369E+000
 0.460000000000340E+000
 0.470000000000311E+000
 0.480000000000282E+000
 0.490000000000253E+000
 0.500000000000224E+000
 0.510000000000156E+000
 0.520000000000123E+000
 0.530000000000094E+000
 0.540000000000065E+000
 0.550000000000043E+000
 0.560000000000051E+000
 0.570000000000022E+000
 0.580000000000030E+000
 0.590000000000007E+000
 0.600000000000000E+000
 0.000000000000000E+000
 0.100000000000203E-001
 0.200000000000565E-001
 0.300000000000737E-001
 0.400000000001128E-001
 0.500000000001302E-001
 0.600000000001648E-001
 0.700000000001866E-001
 0.800000000002054E-001
 0.900000000002429E-001
 0.100000000000257E+000
 0.110000000000267E+000
 0.120000000000302E+000
 0.130000000000323E+000
 0.140000000000350E+000
 0.150000000000379E+000
 0.160000000000409E+000
 0.170000000000436E+000
 0.180000000000458E+000
 0.190000000000492E+000
 0.200000000000510E+000
 0.210000000000546E+000
 0.220000000000566E+000
 0.230000000000595E+000